formula,mpid,space group,bravais lattice,gap opt
HgI2,mp-23192,P4_2/nmc,tetragonal,0.9695
MgI2,mp-23205,P-3m1,hexagonal,3.6244
MgCl2,mp-23210,R-3m,rhombohedral,5.641
SnBr4,mp-23216,P2_1/c,monoclinic,2.2176
BBr3,mp-23225,P6_3/m,hexagonal,3.6365
UCl6,mp-23250,P-3m1,hexagonal,1.4473
BeCl2,mp-23267,Ibam,orthorhombic,6.4796
AsCl3,mp-23280,P2_12_12_1,orthorhombic,3.6938
SbI3,mp-23281,R-3,rhombohedral,2.0615
AlBr3,mp-23288,P2_1/c,monoclinic,3.9745
RuBr3,mp-23294,Pmmn,orthorhombic,0.0139
AsBr3,mp-23317,P2_12_12_1,orthorhombic,2.8552
BiSBr,mp-23324,Pnma,orthorhombic,1.9677
PrAl4,mp-2336,I4/mmm,tetragonal,0.0016
GaSeBr7,mp-23376,Pc,monoclinic,1.9928
Bi2TeI,mp-23435,R-3m,rhombohedral,0.0122
Sr2InI5,mp-23504,I4/mcm,tetragonal,2.8274
BiSI,mp-23514,Pnma,orthorhombic,1.7666
K3AlH6,mp-23697,I4/mmm,tetragonal,2.1119
KHCO3,mp-23724,P-1,triclinic,5.3822
SiH4,mp-23739,P2_1/c,monoclinic,6.1443
SrH2,mp-23759,P6_3/mmc,hexagonal,1.6785
MnH,mp-24416,P6_3/mmc,hexagonal,0.0013
CaH2,mp-24809,Cmcm,orthorhombic,1.0549
KBH4,mp-24814,Pnma,orthorhombic,1.3002
GaS,mp-2507,P6_3/mmc,hexagonal,1.4998
TiO2,mp-25433,R-3m,rhombohedral,2.3537
ZrO2,mp-2574,P4_2/nmc,tetragonal,4.0296
TiO2,mp-2657,P4_2/mnm,tetragonal,1.7688
SnSe,mp-2693,Fm-3m,cubic,0.0168
HgPS3,mp-27178,P-1,triclinic,1.5976
CuCO3,mp-27249,Cm,monoclinic,0.0075
PBr3,mp-27257,Pnma,orthorhombic,2.9922
TmCl2,mp-27302,Pbca,orthorhombic,0.0041
SbBr3,mp-27399,P2_12_12_1,orthorhombic,2.8431
ZrCl,mp-27440,R-3m,rhombohedral,0.0235
AlPS4,mp-27462,P222,orthorhombic,2.48
As4S3,mp-27543,Pnma,orthorhombic,1.8079
SiTe2,mp-2755,P-3m1,hexagonal,0.0068
TiBr4,mp-27634,P2_1/c,monoclinic,2.5201
AuCl3,mp-27647,P2_1/c,monoclinic,1.1177
Te2Br,mp-27648,Pnma,orthorhombic,0.0236
Te2I,mp-27655,Pnma,orthorhombic,0.0251
S3(NCl)2,mp-27699,P2_1,monoclinic,1.3577
BiI,mp-27708,P-1,triclinic,0.1152
TiBr2,mp-27785,P-3m1,hexagonal,0.0039
CS14,mp-27814,R-3m,rhombohedral,2.2812
NbCl3O,mp-27815,P4_2/mnm,tetragonal,2.3076
BiSe,mp-27902,P-3m1,hexagonal,0.036
GeI2,mp-27922,P-3m1,hexagonal,2.062
Ge2S3I2,mp-27928,P-3,hexagonal,2.0234
SNCl,mp-27952,P2_1/m,monoclinic,2.1796
CBrN,mp-27989,Pmmn,orthorhombic,4.8957
BaBrCl,mp-28049,Pnma,orthorhombic,4.7613
SbS8Cl3,mp-28064,P-1,triclinic,2.4779
PbBr2,mp-28077,Pnma,orthorhombic,3.1727
Sb2S3,mp-2809,Pnma,orthorhombic,1.3179
TiCl2,mp-28116,P-3m1,hexagonal,0.0072
VCl3,mp-28117,P-1,triclinic,0.0051
AlSbI6,mp-28118,C2/m,monoclinic,1.91
MoS2,mp-2815,P6_3/mmc,hexagonal,0.9224
AuSCl5,mp-28192,P2_1/c,monoclinic,1.7321
ZrFeCl6,mp-28208,P-31c,hexagonal,0.006
HfFeCl6,mp-28220,C2/c,monoclinic,0.0011
CSO,mp-28240,R3m,rhombohedral,4.642
CdI2,mp-28248,P6_3mc,hexagonal,2.1189
V2Se9,mp-28256,C2/c,monoclinic,0.0139
TeAuCl7,mp-28330,P-1,triclinic,1.4665
AuSeCl7,mp-28372,P2_1/c,monoclinic,1.6638
GaBr2,mp-28384,Pnna,orthorhombic,2.7015
SCl2O,mp-28406,P2_1/c,monoclinic,3.435
ScSi2,mp-2841,P6/mmm,hexagonal,0.0072
Cu2SO4,mp-28491,Fddd,orthorhombic,1.5457
Sm4Cl6O,mp-28544,P6_3mc,hexagonal,0.0118
ZrO2,mp-2858,P2_1/c,monoclinic,3.6218
Ta(ICl)2,mp-28683,Immm,orthorhombic,1.0472
Al3Te3I,mp-28693,Pnma,orthorhombic,1.9558
NdI2,mp-28753,I4/mmm,tetragonal,0.0049
U3(SiC)2,mp-28838,I4/mmm,tetragonal,0.0016
P2Se5,mp-28860,P2_1/c,monoclinic,1.0688
Te2OsCl12,mp-28866,P-1,triclinic,1.5714
PSe,mp-28885,P2_1/c,monoclinic,1.9713
Nb3TeCl7,mp-28938,P-3m1,hexagonal,0.6979
Sr4Nb2O9,mp-28940,P-3,hexagonal,3.6822
Ta3TeI7,mp-29117,P6_3mc,hexagonal,0.0318
SnCl2,mp-29179,P2_1/c,monoclinic,3.1997
GeAsSe,mp-29249,Pnna,orthorhombic,1.3202
AlSeBr7,mp-29408,Pc,monoclinic,2.1346
HfCl4,mp-29422,P2/c,monoclinic,3.9122
Ta(TeBr3)2,mp-29427,P-1,triclinic,0.8168
Ta(TeCl3)2,mp-29428,P-1,triclinic,0.8036
TaCl4,mp-29465,C2/m,monoclinic,1.1039
Al2Te3,mp-29502,P2_1/c,monoclinic,1.7398
GaTeI7,mp-29541,Pc,monoclinic,1.5562
CuSe2Br,mp-29567,P2_1/c,monoclinic,0.0378
CuAsSe2,mp-29643,R3m,rhombohedral,0.0588
Si3Ir,mp-29663,P6_3/mmc,hexagonal,0.0014
TmI2,mp-29671,P-3m1,hexagonal,0.0018
Nb3TeI7,mp-29689,P6_3mc,hexagonal,0.0164
NbTeCl9,mp-29713,P-1,triclinic,1.9892
SiH,mp-29803,P-3m1,hexagonal,2.052
SnCl4,mp-29866,P2_1/c,monoclinic,3.0069
CoBr2,mp-30033,P-3m1,hexagonal,0.0051
TlSbO3,mp-30058,R-3,rhombohedral,2.3977
CIN,mp-30068,R3m,rhombohedral,4.3009
AsCl5,mp-30106,Pmmn,orthorhombic,1.0472
Mn2Au,mp-30409,I4/mmm,tetragonal,0.0042
AlI3,mp-30930,P2_1/c,monoclinic,3.017
PAuS4,mp-30938,P-1,triclinic,1.0366
MgPSe3,mp-30943,R-3,rhombohedral,2.0673
Ga2PdI8,mp-30946,C2/m,monoclinic,0.9986
GaBr3,mp-30953,P2_1/c,monoclinic,2.9881
GaI3,mp-30954,P2_1/c,monoclinic,1.971
GaPS4,mp-30979,P2_1/c,monoclinic,2.0816
S(IO3)2,mp-30984,C2/c,monoclinic,1.8502
Ta3SBr7,mp-31015,Cm,monoclinic,0.7897
CuSe2Cl,mp-31038,P2_1/c,monoclinic,0.1626
As8S9,mp-31070,P2/c,monoclinic,1.5044
AlSiTe3,mp-31220,P-31m,hexagonal,1.1925
AgTe2Au,mp-31495,Pmma,orthorhombic,0.0033
WBr4O,mp-32536,I4/m,tetragonal,0.7264
HfTe2,mp-32887,P-3m1,hexagonal,0.0058
ZnPS3,mp-3342,C2/m,monoclinic,2.0439
CaSiO3,mp-3382,P4/mbm,tetragonal,4.1227
Rb2Te,mp-383,Pnma,orthorhombic,1.6098
TiO2,mp-390,I4_1/amd,tetragonal,2.0233
Te2Pt,mp-399,P-3m1,hexagonal,0.0102
CdTe,mp-406,F-43m,cubic,0.8332
Rb2Te,mp-441,Fm-3m,cubic,1.8872
Fe5Si3,mp-449,P6_3/mcm,hexagonal,0.0036
KPF6,mp-4608,R-3,rhombohedral,7.555
SrTiO3,mp-4651,I4/mcm,tetragonal,1.9061
C,mp-48,P6_3/mmc,hexagonal,0.0352
CaSiO3,mp-5096,Imma,orthorhombic,4.216
CdPS3,mp-5328,C2/m,monoclinic,1.7337
LuTaO4,mp-5489,P2/c,monoclinic,4.0747
TiS2,mp-558110,C2/m,monoclinic,0.0354
MoS2,mp-558544,R-3m,rhombohedral,0.0002
TiO2,mp-572822,P2_1/m,monoclinic,2.0285
BaTiO3,mp-5986,P4mm,tetragonal,1.7486
TiTe,mp-599,P6_3/mmc,hexagonal,0.0009
Te2Mo,mp-602,P6_3/mmc,hexagonal,0.7645
PS,mp-612,C2/c,monoclinic,1.929
PtO2,mp-617,P-3m1,hexagonal,1.5221
VAg(PSe3)2,mp-6543,C2,monoclinic,0.3246
AlN,mp-661,P6_3mc,hexagonal,4.4736
SnSe2,mp-665,P-3m1,hexagonal,0.1131
C,mp-66,Fd-3m,cubic,4.4572
CdS,mp-672,P6_3mc,hexagonal,1.0556
SnSe,mp-691,Pnma,orthorhombic,0.708
KNO3,mp-6920,R3m,rhombohedral,3.0197
SiO2,mp-6930,P3_221,hexagonal,5.9859
GaAg(PSe3)2,mp-7008,P-31c,hexagonal,0.2992
SiO2,mp-7029,P4_32_12,tetragonal,5.7392
P4S5,mp-7260,P2_1/m,monoclinic,2.2266
NdTe3,mp-740,Cmcm,orthorhombic,0.0001
Te2Mo,mp-7459,Pm,monoclinic,0.0012
BaO,mp-7487,P4/nmm,tetragonal,3.443
MoSe2,mp-7581,R3m,rhombohedral,0.9932
Rb3YF6,mp-7617,I4/mmm,tetragonal,5.1265
PtS2,mp-762,P-3m1,hexagonal,0.7739
SiC,mp-7631,P6_3mc,hexagonal,2.3026
NbFeB,mp-7705,P-6m2,hexagonal,0.0003
AgF2,mp-7715,P2_1/c,monoclinic,0.0013
AlPO4,mp-7848,I-4,tetragonal,5.8914
TaSe2,mp-7926,P6_3mc,hexagonal,0.0017
YAlO3,mp-7964,P6_3/mmc,hexagonal,3.978
BN,mp-7991,P6_3/mmc,hexagonal,3.6453
GaN,mp-804,P6_3mc,hexagonal,1.9434
Na2S,mp-8374,P6_3/mmc,hexagonal,1.921
Tl6TeO6,mp-8387,R-3,rhombohedral,1.5611
K2HfF6,mp-8415,P-62m,hexagonal,7.2483
ScAg(PS3)2,mp-8616,P-31c,hexagonal,1.8935
TlTe3Pt2,mp-9251,P-3m1,hexagonal,0.0021
TlPt2S3,mp-9272,P-3m1,hexagonal,1.0636
CdPS3,mp-9330,R-3,rhombohedral,1.8085
Mg(AlSe2)2,mp-9479,R-3m,rhombohedral,1.2228
AgCN,mp-9519,R3m,rhombohedral,3.3327
YbAgGe,mp-9776,P-62m,hexagonal,0.0067
WS2,mp-9813,R3m,rhombohedral,0.6968
NbP,mp-9830,I4_1/amd,tetragonal,0.0007
BN,mp-984,P6_3/mmc,hexagonal,4.4598
HfS2,mp-985829,P-3m1,hexagonal,1.0728
GaS,mp-9889,R-3m,rhombohedral,1.3454
ZrS3,mp-9921,P2_1/m,monoclinic,1.206
NbS2,mp-995122,P-3m1,hexagonal,0.0533
SnS2,mp-9984,P6_3mc,hexagonal,1.1013
SiP2,mp-9996,Pbam,orthorhombic,1.1839
LiInSe2,mp-20187,I-42d,tetragonal,1.5764
NaNbSe2,mp-7939,P6_3/mmc,hexagonal,0.6257
BeS,mp-422,F-43m,cubic,3.3955
Sr4As2O,mp-8299,I4/mmm,tetragonal,1.2211
NdCuO2,mp-4886,R-3m,rhombohedral,2.4749
AuI,mp-27725,P4_2/ncm,tetragonal,1.4041
InI,mp-23202,Cmcm,orthorhombic,1.6159
RbAu3Se2,mp-9385,P-3m1,hexagonal,1.5415
ThO2,mp-643,Fm-3m,cubic,4.8234
AgI,mp-22925,F-43m,cubic,1.26
SrCuSF,mp-12444,P4/nmm,tetragonal,1.7739
NaSbS2,mp-5414,C2/c,monoclinic,0.7555
NaZnP,mp-4824,P4/nmm,tetragonal,0.8346
HgF,mp-706,I4/mmm,tetragonal,1.8305
K3As,mp-14018,P6_3/mmc,hexagonal,0.523
ScSnAu,mp-2894,F-43m,cubic,0.091
BaBrF,mp-23070,P4/nmm,tetragonal,4.9062
Ga2HgS4,mp-4809,I-4,tetragonal,1.5332
Sr4P2O,mp-8298,I4/mmm,tetragonal,1.2212
ErSCl,mp-27616,Pmmn,orthorhombic,2.8441
DyAgTe2,mp-4024,P-42_1m,tetragonal,0.8761
NaNbN2,mp-7017,R-3m,rhombohedral,0.8917
ZnF2,mp-1873,P4_2/mnm,tetragonal,3.6316
TaCu3S4,mp-10748,P-43m,cubic,2.0565
Li4NCl,mp-29149,R-3m,rhombohedral,1.9611
AlSb,mp-2624,F-43m,cubic,1.3217
PrClO,mp-27984,P4/nmm,tetragonal,4.6469
RbCl,mp-23295,Fm-3m,cubic,5.0751
RbCdF3,mp-6951,Pm-3m,cubic,3.2686
RbErO2,mp-7477,R-3m,rhombohedral,3.706
SrS,mp-1087,Fm-3m,cubic,2.5397
Rb2S,mp-8041,Fm-3m,cubic,1.9785
Sm2SeO2,mp-13972,P-3m1,hexagonal,2.3161
Al2HgS4,mp-7906,I-4,tetragonal,2.0744
KZnP,mp-7437,P6_3/mmc,hexagonal,0.9378
AlP,mp-1550,F-43m,cubic,1.7939
NaInS2,mp-20289,R-3m,rhombohedral,1.8476
Sm2TeO2,mp-16033,I4/mmm,tetragonal,1.5654
KPrS2,mp-15782,R-3m,rhombohedral,2.254
SmCuO2,mp-13695,R-3m,rhombohedral,2.5872
HgO,mp-1224,Pnma,orthorhombic,1.217
SmSF,mp-3931,P4/nmm,tetragonal,1.3074
K2O2,mp-2672,Cmce,orthorhombic,2.6955
K2MgH4,mp-23956,I4/mmm,tetragonal,3.9641
RbLiS,mp-8751,P4/nmm,tetragonal,3.0625
NaErS2,mp-3613,R-3m,rhombohedral,2.3589
K2Te2Pt,mp-8623,Immm,orthorhombic,0.8637
Al2Te5,mp-9254,C2/m,monoclinic,1.055
InS,mp-19795,Pnnm,orthorhombic,0.947
Sr(ZnP)2,mp-8276,P-3m1,hexagonal,0.7675
NaRhO2,mp-8830,R-3m,rhombohedral,1.317
ScCl3,mp-23309,R-3,rhombohedral,3.5349
KAuF6,mp-12442,R-3m,rhombohedral,2.0025
K2PdCl6,mp-23067,Fm-3m,cubic,1.1074
Na4HgP2,mp-28591,R-3m,rhombohedral,0.9422
Zn(GaTe2)2,mp-15777,I-4,tetragonal,0.9904
SrHCl,mp-23860,P4/nmm,tetragonal,3.9806
Ca(CdAs)2,mp-7067,P-3m1,hexagonal,0.0372
Sb2Os,mp-2695,Pnnm,orthorhombic,0.0419
Na2Se,mp-1266,Fm-3m,cubic,2.1726
NaS,mp-2400,P6_3/mmc,hexagonal,1.2785
Pr2SeO2,mp-4764,P-3m1,hexagonal,2.3229
Rb2Pt3S4,mp-4030,Fmmm,orthorhombic,1.4205
Ca(MgSb)2,mp-9565,P-3m1,hexagonal,0.9012
TaTl3S4,mp-7562,I-43m,cubic,2.6543
TaTl3Se4,mp-10644,I-43m,cubic,2.2366
KAg2PS4,mp-12532,I-42m,tetragonal,1.0572
Bi2O3,mp-23262,P2_1/c,monoclinic,2.1894
Rb2HgO2,mp-5072,I4/mmm,tetragonal,2.1974
Ba(MgAs)2,mp-8280,P-3m1,hexagonal,1.1521
LiHoSe2,mp-15796,R-3m,rhombohedral,1.5992
SbF3,mp-1880,Ama2,orthorhombic,4.657
Sr2PdO3,mp-4359,Immm,orthorhombic,0.0121
Ba(AgS)2,mp-8579,P-3m1,hexagonal,0.9243
Ag2HgI4,mp-23485,I-4,tetragonal,1.0656
PI2,mp-29443,P-1,triclinic,1.5601
TbOF,mp-14093,R-3m,rhombohedral,5.2119
GaSb,mp-1156,F-43m,cubic,0.1079
InHg,mp-20132,R-3m,rhombohedral,0.0022
RbTmO2,mp-7478,R-3m,rhombohedral,3.7825
ScB2,mp-2252,P6/mmm,hexagonal,0.0097
Al2CdTe4,mp-7909,I-4,tetragonal,1.6687
Nd2SeO2,mp-13971,P-3m1,hexagonal,2.3138
GaAgO2,mp-11020,P6_3/mmc,hexagonal,0.7878
IrBr3,mp-27397,C2/m,monoclinic,1.4228
Tb2TeO2,mp-16036,I4/mmm,tetragonal,1.3522
RbPrS2,mp-9362,R-3m,rhombohedral,2.2049
SrHfN2,mp-9383,R-3m,rhombohedral,0.1624
Zn(InTe2)2,mp-20832,I-4,tetragonal,0.7706
RhBr3,mp-27871,C2/m,monoclinic,1.1667
KSb2,mp-29055,C2/m,monoclinic,0.0316
As2Ru,mp-766,Pnnm,orthorhombic,0.0886
PtPbF6,mp-20458,R-3m,rhombohedral,1.9487
NaI,mp-23268,Fm-3m,cubic,3.8506
Rb2PtCl6,mp-23350,Fm-3m,cubic,1.7163
AuSe,mp-2793,C2/m,monoclinic,0.0374
K2S,mp-1022,Fm-3m,cubic,2.3842
NdMg,mp-1327,Pm-3m,cubic,0.0244
Ca3AsBr3,mp-27294,Pm-3m,cubic,1.5645
Rb2Te5,mp-31002,C2/m,monoclinic,0.0201
Na2O,mp-2352,Fm-3m,cubic,2.2139
ErSbPd,mp-11836,F-43m,cubic,0.0087
InAgS2,mp-19833,I-42d,tetragonal,0.6147
Cu2HgI4,mp-23353,I-42m,tetragonal,0.2279
MgBr2,mp-30034,P-3m1,hexagonal,4.4784
Al2HgSe4,mp-3038,I-4,tetragonal,1.4625
YAgTe2,mp-12903,P-42_1m,tetragonal,0.8439
ZnPtF6,mp-8256,R-3,rhombohedral,2.1817
Cd(InSe2)2,mp-22304,I-4,tetragonal,0.8618
RbTbS2,mp-9365,R-3m,rhombohedral,2.3088
MgH2,mp-23710,P4_2/mnm,tetragonal,4.085
RbTeAu,mp-9008,Pmma,orthorhombic,1.0319
K2PtCl6,mp-23513,Fm-3m,cubic,1.6459
Cd(InTe2)2,mp-21374,I-4,tetragonal,0.4106
KZnF3,mp-5878,Pm-3m,cubic,4.1604
BaPdS2,mp-4009,Cmcm,orthorhombic,0.0365
K3CrO4,mp-19414,I-42m,tetragonal,0.9231
CdCN2,mp-10969,R-3m,rhombohedral,2.3413
BiTeCl,mp-28944,P6_3mc,hexagonal,1.217
RbNdO2,mp-7973,R-3m,rhombohedral,3.4488
BiClO,mp-22939,P4/nmm,tetragonal,2.8704
Hg2GeSe4,mp-3167,I-4,tetragonal,0.7388
BaHI,mp-23862,P4/nmm,tetragonal,3.0214
NdBr3,mp-27975,Cmcm,orthorhombic,2.6854
RbDyO2,mp-7476,R-3m,rhombohedral,3.6545
Al2CdSe4,mp-3159,I-4,tetragonal,2.0941
Tl2SnCl6,mp-27832,Fm-3m,cubic,2.1478
NaScO2,mp-7914,R-3m,rhombohedral,4.0371
AuCl,mp-32780,I4_1/amd,tetragonal,1.73
Ca(MgAs)2,mp-9564,P-3m1,hexagonal,1.3743
GaCuS2,mp-5238,I-42d,tetragonal,0.7614
K4BeP2,mp-9872,R-3m,rhombohedral,1.2212
MgTe,mp-1039,P6_3mc,hexagonal,2.5303
SmMg,mp-2558,Pm-3m,cubic,0.0078
ErTlS2,mp-4123,R-3m,rhombohedral,1.5424
Nd2TeO2,mp-5459,I4/mmm,tetragonal,1.7164
Th(CuP)2,mp-9581,P-3m1,hexagonal,0.0966
BaTiO3,mp-5020,R3m,rhombohedral,2.444
InSb,mp-20012,F-43m,cubic,0.0894
PbF4,mp-341,I4/mmm,tetragonal,1.8492
CaO,mp-2605,Fm-3m,cubic,3.7422
LiCrS2,mp-4226,P-3m1,hexagonal,0.0133
K2PAu,mp-9687,Cmcm,orthorhombic,0.9557
HgF2,mp-8177,Fm-3m,cubic,0.8617
HgBr,mp-23177,I4/mmm,tetragonal,1.8177
Ba(CdP)2,mp-8279,P-3m1,hexagonal,0.0559
WBr6,mp-28483,R-3,rhombohedral,0.5227
NaSrAs,mp-9775,P-62m,hexagonal,1.0586
Na2HgO2,mp-4961,I4/mmm,tetragonal,1.8165
BP,mp-1479,F-43m,cubic,1.515
Cd(GaSe2)2,mp-3772,I-4,tetragonal,1.3178
HoHSe,mp-24012,P-6m2,hexagonal,1.6982
PrBr3,mp-23221,P6_3/m,hexagonal,3.5256
GaAgSe2,mp-5518,I-42d,tetragonal,0.6418
InCuTe2,mp-22261,I-42d,tetragonal,0.5797
Li2Te,mp-2530,Fm-3m,cubic,2.6048
ZrCl2,mp-23162,R3m,rhombohedral,0.8656
Ho2SeO2,mp-13974,P-3m1,hexagonal,2.318
CdF2,mp-241,Fm-3m,cubic,3.0624
BaLiH3,mp-23818,Pm-3m,cubic,2.4437
K2CuP,mp-8446,Cmcm,orthorhombic,1.2482
KErO2,mp-7959,R-3m,rhombohedral,4.1686
AlCuSe2,mp-8016,I-42d,tetragonal,1.0689
ScAgSe2,mp-12908,P-3m1,hexagonal,0.7653
Na2CuAs,mp-15685,Cmcm,orthorhombic,0.8118
NdO2,mp-31049,C2/m,monoclinic,3.6042
RhCl3,mp-27770,C2/m,monoclinic,1.4811
GaAgS2,mp-5342,Cc,monoclinic,0.9367
BaS,mp-1500,Fm-3m,cubic,2.1484
TeRhCl,mp-22945,C2/m,monoclinic,0.7228
TlGaTe2,mp-3785,I4/mcm,tetragonal,0.19
In2HgSe4,mp-20731,I-4,tetragonal,0.624
RbSmS2,mp-9364,R-3m,rhombohedral,2.2614
KI,mp-22898,Fm-3m,cubic,4.0924
LiErSe2,mp-15797,R-3m,rhombohedral,1.6486
Zn(InSe2)2,mp-22607,I-4,tetragonal,0.9316
Rb2PtSe2,mp-8622,Immm,orthorhombic,1.0443
TmN,mp-1975,Fm-3m,cubic,0.3432
RbAuO2,mp-7472,Cmcm,orthorhombic,1.5654
Ca2NCl,mp-22936,R-3m,rhombohedral,2.3122
ScCuS2,mp-6980,P3m1,hexagonal,0.9259
KLiTe,mp-4495,P4/nmm,tetragonal,2.6485
AgCl,mp-22922,Fm-3m,cubic,0.9251
ZrIN,mp-23052,Pmmn,orthorhombic,1.3326
Tl3SbS3,mp-8393,R3m,rhombohedral,1.4495
NaLiS,mp-8452,P4/nmm,tetragonal,3.3404
K2Te,mp-1747,Fm-3m,cubic,2.1865
KHoS2,mp-15786,R-3m,rhombohedral,2.3563
NaInTe2,mp-22483,I4/mcm,tetragonal,0.8397
K2PtS2,mp-7928,Immm,orthorhombic,1.3242
KMgSb,mp-7089,P4/nmm,tetragonal,1.4026
Rb2Se,mp-11327,Fm-3m,cubic,1.8419
Sc2CCl2,mp-28479,P-3m1,hexagonal,0.8596
K2AgSb,mp-7643,Cmcm,orthorhombic,1.2667
TiS3,mp-9920,P2_1/m,monoclinic,0.0583
NaH,mp-23870,Fm-3m,cubic,4.8448
BrF3,mp-23297,Cmc2_1,orthorhombic,2.1209
KPrO2,mp-4519,R-3m,rhombohedral,3.6539
SrTiN2,mp-9517,P4/nmm,tetragonal,0.8181
K2AgP,mp-9778,Cmcm,orthorhombic,1.2601
Na2S,mp-648,Fm-3m,cubic,2.5899
Na4I2O,mp-22937,I4/mmm,tetragonal,2.4877
TbSF,mp-10930,P4/nmm,tetragonal,1.3535
RbScO2,mp-7650,P6_3/mmc,hexagonal,3.5377
KBr,mp-23251,Fm-3m,cubic,4.6015
KH,mp-24084,Fm-3m,cubic,3.5371
Na3SbSe4,mp-8703,I-43m,cubic,1.057
KSbS2,mp-11703,C2/c,monoclinic,1.4294
Ba(MgP)2,mp-8278,P-3m1,hexagonal,1.1513
TbAgTe2,mp-3551,P-42_1m,tetragonal,0.8687
NaNiO2,mp-19149,C2/m,monoclinic,0.0023
Mg(BeN)2,mp-11917,P-3m1,hexagonal,4.4059
Li2O,mp-1960,Fm-3m,cubic,5.2791
K2PtCl4,mp-22934,P4/mmm,tetragonal,1.6175
Dy2TeO2,mp-16037,I4/mmm,tetragonal,1.2771
KErTe2,mp-9263,R-3m,rhombohedral,1.3307
TlF,mp-720,Pbcm,orthorhombic,3.1073
NaInO2,mp-5175,R-3m,rhombohedral,2.1545
K4HgP2,mp-8753,R-3m,rhombohedral,1.0176
NaHoS2,mp-5694,R-3m,rhombohedral,2.3282
KNdTe2,mp-11740,R-3m,rhombohedral,1.2554
KAuSe2,mp-29138,P4/mbm,tetragonal,0.8587
BaS3,mp-239,P-42_1m,tetragonal,1.4624
TmIO,mp-27439,P4/nmm,tetragonal,3.4301
Rb2TeCl6,mp-22975,Fm-3m,cubic,2.4476
RbNdS2,mp-9363,R-3m,rhombohedral,2.2522
HgI,mp-22859,I4/mmm,tetragonal,1.385
Rb2Pd3S4,mp-11695,Fmmm,orthorhombic,1.1343
NaBeAs,mp-9573,P6_3/mmc,hexagonal,1.4992
NaBr,mp-22916,Fm-3m,cubic,4.4044
Yb4As2O,mp-9799,I4/mmm,tetragonal,0.9797
Na3SbS4,mp-10167,I-43m,cubic,1.8918
CaI2,mp-30031,P-3m1,hexagonal,3.4465
Tl2TeCl6,mp-27833,Fm-3m,cubic,2.4107
LiErS2,mp-15791,R-3m,rhombohedral,2.0399
BPS4,mp-27724,I222,orthorhombic,1.9377
NaSbF6,mp-5955,Fm-3m,cubic,4.9184
ZrCoBi,mp-31451,F-43m,cubic,0.9859
KDyS2,mp-15785,R-3m,rhombohedral,2.3391
RbI,mp-22903,Fm-3m,cubic,3.9687
CdBr2,mp-27934,P6_3mc,hexagonal,2.7423
KBiO2,mp-30988,C2/c,monoclinic,2.0021
CdPdF6,mp-13984,R-3,rhombohedral,1.8824
SmBrO,mp-29327,P4/nmm,tetragonal,4.4114
BaHgO2,mp-3915,R-3m,rhombohedral,2.4144
RbSmO2,mp-7974,R-3m,rhombohedral,3.6091
Rb2SeCl6,mp-27829,Fm-3m,cubic,2.3953
NdTlS2,mp-3664,R-3m,rhombohedral,1.7098
RbTlO2,mp-8176,R-3m,rhombohedral,0.9843
DyCl3,mp-28448,Cmcm,orthorhombic,3.6046
InAgO2,mp-22660,R-3m,rhombohedral,0.3919
KTlO,mp-27716,C2/m,monoclinic,1.4995
Ga2HgSe4,mp-4730,I-4,tetragonal,0.8722
K2PtSe2,mp-8621,Immm,orthorhombic,1.019
SrO,mp-2472,Fm-3m,cubic,3.4051
Yb(ZnP)2,mp-9582,P-3m1,hexagonal,0.8145
ThNCl,mp-28065,P4/nmm,tetragonal,2.542
GaF3,mp-588,R-3c,rhombohedral,5.0302
Cu2O,mp-361,Pn-3m,cubic,0.1349
RbBr,mp-22867,Fm-3m,cubic,4.4359
IBr,mp-27639,Cmcm,orthorhombic,1.2602
YOF,mp-3637,R-3m,rhombohedral,5.2315
PbClF,mp-22964,P4/nmm,tetragonal,3.8164
ScTlS2,mp-13312,P6_3/mmc,hexagonal,0.9979
BiI3,mp-22849,R-3,rhombohedral,2.3652
SmBr3,mp-27976,Cmcm,orthorhombic,2.7111
ErSeI,mp-28458,Pmmn,orthorhombic,2.1941
RbHoS2,mp-9366,R-3m,rhombohedral,2.3362
NaN3,mp-22003,R-3m,rhombohedral,4.0416
NaErSe2,mp-8584,R-3m,rhombohedral,1.958
SnO2,mp-856,P4_2/mnm,tetragonal,0.8949
ZnSiAs2,mp-3595,I-42d,tetragonal,0.8809
Sr2ZnN2,mp-9306,I4/mmm,tetragonal,0.9101
Zn(GaSe2)2,mp-15776,I-4,tetragonal,1.408
K2TiF6,mp-3970,P-3m1,hexagonal,4.6997
CdSnP2,mp-5213,I-42d,tetragonal,0.7613
K2AgBi,mp-27549,C222_1,orthorhombic,0.9482
Na2Pd3O4,mp-27562,Immm,orthorhombic,0.0708
Ba(MgBi)2,mp-29209,P-3m1,hexagonal,0.2145
Ca3AsCl3,mp-28069,Pm-3m,cubic,1.7131
CrAgO2,mp-19378,R-3m,rhombohedral,0.0033
SiRu,mp-189,P2_13,cubic,0.0264
Au2S,mp-947,Pn-3m,cubic,2.1492
AlAgTe2,mp-14092,I-42d,tetragonal,1.074
RbH,mp-24721,Fm-3m,cubic,2.9704
BaHCl,mp-23861,P4/nmm,tetragonal,3.5816
In2HgTe4,mp-19765,I-4,tetragonal,0.5041
K2SeBr6,mp-23036,Fm-3m,cubic,1.5275
ThSeO,mp-7950,P4/nmm,tetragonal,0.9692
Ca(MgBi)2,mp-29208,P-3m1,hexagonal,0.1864
KMgH3,mp-23737,Pm-3m,cubic,3.4711
RbLiSe,mp-9250,P4/nmm,tetragonal,2.5759
NaYS2,mp-10226,R-3m,rhombohedral,2.3255
NaTlO2,mp-3056,R-3m,rhombohedral,0.2159
Ba(MgSb)2,mp-9567,P-3m1,hexagonal,0.9118
SrCN2,mp-12317,R-3m,rhombohedral,3.2289
Ca2ZnN2,mp-8818,I4/mmm,tetragonal,0.8415
AlCuTe2,mp-8017,I-42d,tetragonal,1.102
RbBiS2,mp-30041,R-3m,rhombohedral,1.4384
Li3N,mp-2251,P6/mmm,hexagonal,1.3545
Pd(SeBr3)2,mp-29496,P-1,triclinic,1.1846
Zn(GaS2)2,mp-5350,I-4,tetragonal,2.2946
K2Se,mp-8426,Fm-3m,cubic,2.171
Rb2PdF6,mp-14088,Fm-3m,cubic,2.1761
VCu3S4,mp-3762,P-43m,cubic,1.1799
NaMgAs,mp-5962,P4/nmm,tetragonal,1.1575
SnF3,mp-8289,Fm-3m,cubic,2.9403
SrTe,mp-1958,Fm-3m,cubic,1.7718
K2AgAs,mp-7642,Cmcm,orthorhombic,1.2867
BaAgTeF,mp-16742,P4/nmm,tetragonal,1.6407
Rb2PtS2,mp-7929,Immm,orthorhombic,1.2762
CdSe,mp-2691,F-43m,cubic,0.7977
CdHgO2,mp-9146,C2/m,monoclinic,0.5462
KSmS2,mp-15783,R-3m,rhombohedral,2.2671
ThTeO,mp-3718,P4/nmm,tetragonal,0.2015
NdCl3,mp-23183,P6_3/m,hexagonal,4.3739
KNbO3,mp-7375,R3m,rhombohedral,2.0889
BaAgP,mp-9899,P6_3/mmc,hexagonal,0.0622
NdBrO,mp-23068,P4/nmm,tetragonal,4.5075
RbHgF3,mp-7482,Pm-3m,cubic,1.114
Nd2TeS2,mp-10933,P-3m1,hexagonal,1.5892
NaNbS2,mp-7937,P6_3/mmc,hexagonal,0.7483
Rb2SnCl6,mp-23059,Fm-3m,cubic,2.2202
YSbPt,mp-4964,F-43m,cubic,0.5094
Ca(HO)2,mp-23879,C2,monoclinic,4.4648
DySBr,mp-28928,Pmmn,orthorhombic,2.7707
KNbS2,mp-7938,P6_3/mmc,hexagonal,0.8883
AlAs,mp-2172,F-43m,cubic,1.6807
YHSe,mp-28797,P-6m2,hexagonal,1.7443
RbHoSe2,mp-10783,R-3m,rhombohedral,1.9423
SrO2,mp-2697,I4/mmm,tetragonal,3.1004