formula,mpid,space group,bravais lattice,gap opt
MgAlPO5,mp-6596,P2_1/c,monoclinic,5.2711
KBePO4,mp-7324,Pna2_1,orthorhombic,5.6141
As,mp-158,Cmce,orthorhombic,0.0221
CuHOF,mp-24242,P2_1/c,monoclinic,0.0038
AgI,mp-567809,P4/nmm,tetragonal,1.2599
ZrBrN,mp-570157,Pmmn,orthorhombic,1.8723
InBr3,mp-570219,C2/m,monoclinic,2.3104
YI3,mp-571442,R-3,rhombohedral,2.676
AlHO2,mp-625055,P2_1/m,monoclinic,5.1686
BiOF,mp-759883,R-3m,rhombohedral,2.9829
ZrTiTe4,mp-8677,P2/m,monoclinic,0.0019
CuHO2,mp-996956,Pmn2_1,orthorhombic,0.0087
TiClO,mp-22992,Pmmn,orthorhombic,0.0183
ScBrO,mp-546279,Pmmn,orthorhombic,3.2224
ZnCu3H6(ClO3)2,mp-560161,P-3m1,hexagonal,0.0089
ZnCl2,mp-567279,P4_2/nmc,tetragonal,3.7581
ScHO2,mp-625199,P1,triclinic,4.2842
Zr(MoO4)2,mp-627151,C2/m,monoclinic,2.8374
BaCaI4,mp-753575,P2/m,monoclinic,3.1541
CaPbI4,mp-754540,P2/m,monoclinic,2.8989
YBr3,mp-754815,C2/m,monoclinic,3.5904
NdIO,mp-755336,P4/nmm,tetragonal,3.6792
Sb,mp-80,P6_3/mmc,hexagonal,0.0044
GaS,mp-556742,P6_3/mmc,hexagonal,1.4183
RbPS3,mp-556953,Immm,orthorhombic,1.7003
CrMoF6,mp-557158,R-3,rhombohedral,0.0005
BeF2,mp-15951,P3_121,hexagonal,8.7016
BeO,mp-1778,F-43m,cubic,7.2929
CO2,mp-20066,Pa-3,cubic,6.931
CaCl2,mp-22904,P4_2/mnm,tetragonal,5.2887
SrClF,mp-22957,P4/nmm,tetragonal,5.9497
SrBrF,mp-23024,P4/nmm,tetragonal,5.2929
SrCl2,mp-23209,Fm-3m,cubic,5.4985
CaCl2,mp-23214,Pnnm,orthorhombic,5.4217
CaClF,mp-27546,P4/nmm,tetragonal,5.6518
NaHF2,mp-27837,R-3m,rhombohedral,7.136
Bi2SO2,mp-27891,Pnnm,orthorhombic,0.9351
BrF5,mp-27987,Cmc2_1,orthorhombic,3.1677
IF7,mp-27988,Aea2,orthorhombic,1.5121
AsF3,mp-28027,Pna2_1,orthorhombic,5.1841
KSc2F7,mp-28439,Cmmm,orthorhombic,5.7629
CClF3,mp-28473,Cmc2_1,orthorhombic,6.6884
K2MgF4,mp-31212,I4/mmm,tetragonal,6.9563
LiMgP,mp-36111,F-43m,cubic,1.7383
H4BrN,mp-36248,P-43m,cubic,4.3683
NaHS,mp-36582,R3m,rhombohedral,3.386
Sr(AlTe2)2,mp-37091,I422,tetragonal,1.7816
AgAsF6,mp-37153,Fm-3m,cubic,1.4341
LiYSe2,mp-37879,I4_1/amd,tetragonal,1.6253
LiMgN,mp-37906,F-43m,cubic,2.7861
Ba(GaTe2)2,mp-38117,I422,tetragonal,0.6876
RbNO3,mp-38220,R-3c,rhombohedral,3.0425
CaSnF6,mp-4782,R-3,rhombohedral,5.4907
N2O5,mp-504769,P6_3/mmc,hexagonal,0.9323
NbSbRu,mp-505297,F-43m,cubic,0.4191
KAlF4,mp-5347,P4/mmm,tetragonal,7.2302
K2PdO2,mp-540584,Immm,orthorhombic,1.4642
Na2CN2,mp-541989,C2/m,monoclinic,3.3747
SnO,mp-545820,Cmce,orthorhombic,0.376
RbAlF4,mp-5479,P4/mmm,tetragonal,7.3635
SnO2,mp-550172,Pnnm,orthorhombic,0.8947
KIO3,mp-552729,R3m,rhombohedral,2.7309
K3MoF6,mp-553896,Fm-3m,cubic,0.7397
SiO2,mp-554089,Pna2_1,orthorhombic,5.8315
SiO2,mp-554151,I-4,tetragonal,5.7402
TiO2,mp-554278,C2/m,monoclinic,2.6815
SiO2,mp-554573,Ama2,orthorhombic,5.7511
SiO2,mp-555235,Cc,monoclinic,5.7034
K3WF6,mp-555403,Fm-3m,cubic,0.0609
ZnS,mp-555763,R3m,rhombohedral,2.1197
ClF3,mp-556767,Pnma,orthorhombic,2.6405
ZnS,mp-557308,P3m1,hexagonal,2.0943
Cu2WS4,mp-557373,I-42m,tetragonal,0.9011
HfVF6,mp-557938,Fm-3m,cubic,0.9689
RbS,mp-558071,Immm,orthorhombic,1.6518
BeF2,mp-558118,P6_222,hexagonal,8.212
TlF,mp-558134,Aem2,orthorhombic,3.0971
MoF6,mp-558836,Im-3m,cubic,4.1506
NiPtF6,mp-558838,R-3,rhombohedral,0.9156
CrHgF6,mp-558864,R-3,rhombohedral,0.7563
SiO2,mp-559091,P6_322,hexagonal,5.5433
SiO2,mp-559550,R-3,rhombohedral,5.6771
PNF2,mp-560008,Cmc2_1,orthorhombic,5.8331
NiSnF6,mp-560023,R-3,rhombohedral,1.1443
ZnS,mp-560588,P6_3mc,hexagonal,2.1391
Rb2NiF4,mp-561317,I4/mmm,tetragonal,0.036
SO3,mp-561397,P2_1/c,monoclinic,5.3362
TeF4,mp-561664,P2_12_12_1,orthorhombic,4.1271
CdI2,mp-567259,P-3m1,hexagonal,2.2634
SiC,mp-567505,P6_3mc,hexagonal,2.0599
P3N5,mp-567907,C2/c,monoclinic,3.8491
InSiTe3,mp-567931,P-31m,hexagonal,0.1173
RbSb2,mp-568018,C2/m,monoclinic,0.0501
Cd(InSe2)2,mp-568032,P-42m,tetragonal,0.8508
SiSe2,mp-568264,Ibam,orthorhombic,1.737
Cu2HgI4,mp-568598,P-42m,tetragonal,0.2967
SiC,mp-568619,P3m1,hexagonal,2.0665
SiC,mp-568656,P3m1,hexagonal,2.273
Cd(InSe2)2,mp-568661,I-42m,tetragonal,0.6249
CdBr2,mp-568690,R-3m,rhombohedral,2.6819
Rb2SnBr6,mp-569028,Fm-3m,cubic,0.9828
SnCl2,mp-569152,Pnma,orthorhombic,3.2179
Sr3BiN,mp-570008,Pm-3m,cubic,0.134
CuI,mp-570081,P-3m1,hexagonal,1.6466
HgIBr,mp-570172,Cmc2_1,orthorhombic,1.8893
LiMgBi,mp-570213,F-43m,cubic,0.5333
Ag2HgI4,mp-570256,P-42m,tetragonal,0.9275
MgCl2,mp-570259,P-3m1,hexagonal,5.6257
Rb2TeBr6,mp-570324,I4/m,tetragonal,1.9638
NaN3,mp-570538,C2/m,monoclinic,4.0396
SeBr,mp-570589,Aea2,orthorhombic,1.0489
BeI2,mp-570886,Ibam,orthorhombic,4.0336
OsCl4,mp-571035,Cmmm,orthorhombic,0.0515
CaBr2,mp-571166,P4_2/mnm,tetragonal,4.5493
K4ZnAs2,mp-571461,R-3m,rhombohedral,0.2123
WCl6,mp-571518,R-3,rhombohedral,1.2042
CsK2Sb,mp-581024,Fm-3m,cubic,1.2076
BN,mp-604884,P-6m2,hexagonal,4.4687
HCl,mp-632326,Cmc2_1,orthorhombic,5.8151
CaO2,mp-634859,I4/mmm,tetragonal,2.9825
Rb2H6Pt,mp-643101,Fm-3m,cubic,3.889
K2H4Pd,mp-643257,I4/mmm,tetragonal,2.872
YAgSe2,mp-676284,P1,triclinic,0.2966
CdTe,mp-685146,Cmc2_1,orthorhombic,0.7136
Na2H6Pt,mp-690785,Fm-3m,cubic,3.5451
Sr2HN,mp-690794,R-3m,rhombohedral,1.8637
Mg2H6Ru,mp-697030,Fm-3m,cubic,3.1276
Ba2H6Ru,mp-697038,Fm-3m,cubic,1.8541
Ba2H6Os,mp-697044,Fm-3m,cubic,1.9379
Na2H4Pt,mp-697096,I4/mmm,tetragonal,2.5013
SbO2F,mp-752753,C2/c,monoclinic,1.4581
LiAgF2,mp-752927,P6_3/mmc,hexagonal,1.7326
BiOF,mp-753594,Pmn2_1,orthorhombic,2.8209
Rb2O,mp-753746,R-3m,rhombohedral,1.5529
Hg(SbO3)2,mp-754065,P-31m,hexagonal,0.6569
RbGaO2,mp-754596,Fd-3m,cubic,2.755
TeO3,mp-754658,Pnna,orthorhombic,1.3762
Ca3CdO4,mp-755287,Cmmm,orthorhombic,2.8179
Sr4Sb2O,mp-755293,Fmm2,orthorhombic,1.0105
Li3VS4,mp-760375,P-43m,cubic,1.8208
CaCd3O4,mp-760403,Cmmm,orthorhombic,0.6719
Rb4I2O,mp-760417,I4/mmm,tetragonal,0.8543
MgAs4,mp-7623,P4_12_12,tetragonal,0.8396
K4I2O,mp-768368,I4/mmm,tetragonal,1.3856
KCaBi,mp-773137,P4/nmm,tetragonal,1.0976
K2GeF6,mp-7825,P-3m1,hexagonal,5.9659
Rb2GeF6,mp-7949,P-3m1,hexagonal,5.9901
RbMgF3,mp-8402,Pm-3m,cubic,7.6493
Ba2SbAu,mp-862631,Fm-3m,cubic,0.07
PbBr2,mp-862868,P4_2/mnm,tetragonal,2.6404
MgMoN2,mp-864954,P6_3/mmc,hexagonal,0.9389
NaLi2Bi,mp-865101,Fm-3m,cubic,0.1117
HfSiRu2,mp-866062,Fm-3m,cubic,0.1381
Na2TlSb,mp-866132,Fm-3m,cubic,0.2374
Ca2SnS4,mp-866818,Cmmm,orthorhombic,0.9437
KNbO3,mp-935811,Pm-3m,cubic,1.5258
LiCaAs,mp-961684,F-43m,cubic,1.8826
NaCaAs,mp-961685,F-43m,cubic,1.7974
LiO3,mp-1001790,Imm2,orthorhombic,0.0052
HoAlAu2,mp-982559,Fm-3m,cubic,0.098
SnS,mp-10013,F-43m,cubic,0.3527
BAs,mp-10044,F-43m,cubic,1.415
CdSnSb2,mp-10063,I-42d,tetragonal,0.0561
SiO2,mp-10064,Fm-3m,cubic,2.2105
GeSe2,mp-10074,I-42d,tetragonal,1.236
YSF,mp-10086,P4/nmm,tetragonal,1.4046
KAgC2,mp-10102,P4/mmm,tetragonal,2.4203
K3Sb,mp-10159,Fm-3m,cubic,0.9932
NaGaTe2,mp-10164,I4/mcm,tetragonal,0.3068
KAlTe2,mp-10165,I4/mcm,tetragonal,1.9508
NaAlSe2,mp-10166,I4/mcm,tetragonal,2.4391
KCdF3,mp-10175,Pm-3m,cubic,3.3886
YOF,mp-10219,P4/nmm,tetragonal,5.2369
Nb3B4,mp-10255,Immm,orthorhombic,0.0017
ZnS,mp-10281,P6_3mc,hexagonal,2.1123
BaC2,mp-10293,C2/c,monoclinic,2.2211
K2CuSb,mp-10381,Cmcm,orthorhombic,1.2484
RbAuC2,mp-10421,P4/mmm,tetragonal,2.1999
NaAuC2,mp-10422,P4/mmm,tetragonal,1.5238
KAuC2,mp-10423,P4/mmm,tetragonal,2.0134
Nb2O5,mp-10426,C2,monoclinic,1.8405
Ba(CuSe)2,mp-10437,I4/mmm,tetragonal,0.2637
SrC2,mp-10497,C2/c,monoclinic,2.4013
NaLi2N,mp-10525,Fm-3m,cubic,2.7974
Lu2AlSi2,mp-10531,Immm,orthorhombic,0.0011
BaLiP,mp-10615,P-6m2,hexagonal,0.7237
LiInSe2,mp-10618,R-3m,rhombohedral,0.7839
SrS,mp-10627,Pm-3m,cubic,1.777
Sc,mp-10641,Im-3m,cubic,0.0012
SrTe,mp-10653,Pm-3m,cubic,0.1792
Sr3(AlGe)2,mp-10671,Immm,orthorhombic,0.0031
BaSe,mp-10680,Pm-3m,cubic,1.2581
CdSe,mp-1070,P6_3mc,hexagonal,0.8293
ThTaN3,mp-10732,Pm-3m,cubic,0.0644
Sm2O3,mp-10733,P-3m1,hexagonal,4.0694
MgSe,mp-10760,Fm-3m,cubic,2.1169
Al2Ru,mp-10910,Fddd,orthorhombic,0.0299
Rb2PdC2,mp-10918,P-3m1,hexagonal,1.7962
HoSF,mp-10931,P4/nmm,tetragonal,1.3904
ErSF,mp-10932,P4/nmm,tetragonal,1.421
Sn(HgSe2)2,mp-10955,I-4,tetragonal,0.7662
LiErO2,mp-10971,I4_1/amd,tetragonal,4.6332
YbC2,mp-1100,I4/mmm,tetragonal,1.142
GaCuO2,mp-11019,P6_3/mmc,hexagonal,1.032
ScAuO2,mp-11023,P6_3/mmc,hexagonal,1.9153
SrP3,mp-11108,C2/m,monoclinic,0.0118
Na5CuSO2,mp-11147,P4/mmm,tetragonal,1.6732
CrSi2,mp-11191,P6_422,hexagonal,0.0253
PrAu,mp-11255,Pm-3m,cubic,0.0025
SmAu,mp-11257,Pm-3m,cubic,0.004
LiGaSi,mp-11390,F-43m,cubic,0.0387
ZrIr,mp-11484,Pm-3m,cubic,0.0042
URh3,mp-1150,Pm-3m,cubic,0.0046
YNiSb,mp-11520,F-43m,cubic,0.0805
NaErO2,mp-11601,R-3m,rhombohedral,4.5192
Dy2Fe2Si2C,mp-11705,C2/m,monoclinic,0.0045
SrS3,mp-1175,Aea2,orthorhombic,1.0649
TiCuHg2,mp-11882,F-43m,cubic,0.0025
HoMg,mp-1199,Pm-3m,cubic,0.0058
KAg2AsO4,mp-12015,I-42m,tetragonal,0.5299
TaRu,mp-12110,Pm-3m,cubic,0.0063
CrSi2,mp-1222,P6_222,hexagonal,0.0254
NaSnN,mp-12433,P6_3mc,hexagonal,1.1556
NdTeF,mp-12621,P4/nmm,tetragonal,0.0834
Tb2SO2,mp-12668,P-3m1,hexagonal,3.0951
Dy2SO2,mp-12669,P-3m1,hexagonal,3.125
Ho2SO2,mp-12670,P-3m1,hexagonal,3.1551
Er2SO2,mp-12671,P-3m1,hexagonal,3.1862
Lu2SO2,mp-12673,P-3m1,hexagonal,3.2228
NbAgO3,mp-12725,Pm-3m,cubic,1.4262
CdTe,mp-12779,P6_3mc,hexagonal,0.7137
P,mp-12883,C2/m,monoclinic,2.3468
Y2SO2,mp-12894,P-3m1,hexagonal,3.1156
MgS,mp-13032,F-43m,cubic,3.5821
MgTe,mp-13033,F-43m,cubic,2.4947
Sc2O3,mp-13060,P-3m1,hexagonal,3.5655
Y2O3,mp-13061,P-3m1,hexagonal,4.2095
Tb2O3,mp-13063,P-3m1,hexagonal,4.2122
Dy2O3,mp-13064,P-3m1,hexagonal,4.2771
Ho2O3,mp-13065,P-3m1,hexagonal,4.3416
Er2O3,mp-13066,P-3m1,hexagonal,4.4226
Tm2O3,mp-13067,P-3m1,hexagonal,4.4912
Lu2O3,mp-13068,P-3m1,hexagonal,4.458
YN,mp-13099,F-43m,cubic,2.2334
SrHfO3,mp-13108,P4mm,tetragonal,3.8856
CdO,mp-13119,P6_3mc,hexagonal,0.7936
BN,mp-13151,P4_2/mnm,tetragonal,5.0553
Na4CO4,mp-13274,C2,monoclinic,2.4737
AlN,mp-1330,Fm-3m,cubic,4.8926
ScTlTe2,mp-13314,R-3m,rhombohedral,0.0829
Ca2GeO4,mp-13650,I4/mmm,tetragonal,3.06
SnS,mp-1379,Cmcm,orthorhombic,0.1268
ZnSnF6,mp-13903,R-3,rhombohedral,3.7753
CdSnF6,mp-13907,R-3,rhombohedral,3.8825
Rb2O,mp-1394,Pnnm,orthorhombic,1.607
ZnAgF3,mp-14099,Pm-3m,cubic,1.7637
AlTlO2,mp-14105,Fd-3m,cubic,2.2854
DyN,mp-1410,Fm-3m,cubic,0.3975
TlGaO2,mp-14222,Fd-3m,cubic,2.2173
Se,mp-147,R-3,rhombohedral,1.2286
CdTe,mp-1492,P3_121,hexagonal,0.6718
Se,mp-14,P3_121,hexagonal,0.8981
TmMg,mp-1505,Pm-3m,cubic,0.0142
Tl,mp-151,Fm-3m,cubic,0.0088
ZrO2,mp-1565,Fm-3m,cubic,3.4518
NaSe,mp-15668,P6_3/mmc,hexagonal,0.3553
KZnAs,mp-15687,P-6m2,hexagonal,0.2452
MgSiN2,mp-15701,I-42d,tetragonal,3.7015
MgCN2,mp-15702,I-42d,tetragonal,4.0037
BeSiN2,mp-15704,I-42d,tetragonal,3.8367
CaC2,mp-1575,C2/c,monoclinic,2.2434
P,mp-157,Cmce,orthorhombic,0.0386
Nb2O5,mp-1595,C2/m,monoclinic,2.1697
Li2CuSb,mp-15988,F-43m,cubic,0.0657
BN,mp-1599,Cm,monoclinic,1.6131
TmSbPt,mp-16314,F-43m,cubic,0.179
ErSbPt,mp-16329,F-43m,cubic,0.1775
SnTe,mp-16364,F-43m,cubic,0.0633
HoSbPt,mp-16376,F-43m,cubic,0.1768
BN,mp-1639,F-43m,cubic,4.8134
Si,mp-165,P6_3/mmc,hexagonal,0.0308
AlAuO2,mp-16613,P6_3/mmc,hexagonal,0.7821
C,mp-169,C2/m,monoclinic,0.0984
AlN,mp-1700,F-43m,cubic,3.5452
BaC2,mp-1735,I4/mmm,tetragonal,1.7911
TlSe,mp-1836,I4/mcm,tetragonal,0.0485
SnS,mp-1876,Fm-3m,cubic,0.0928
SnTe,mp-1883,Fm-3m,cubic,0.0333
AlPt3,mp-188,Pm-3m,cubic,0.0056
Sr2MnO4,mp-18978,I4/mmm,tetragonal,0.0029
NiO,mp-19009,Fm-3m,cubic,0.0031
Na5CoSO2,mp-19027,P4/mmm,tetragonal,1.2283
CoO,mp-19128,P6_3mc,hexagonal,0.0016
Li2NiO2,mp-19183,C2/m,monoclinic,0.0613
VO,mp-19184,Fm-3m,cubic,0.0002
V2CoO6,mp-19311,C2/m,monoclinic,0.0089
Cu3N,mp-1933,Pm-3m,cubic,0.1404
VAg3O4,mp-19412,I-42m,tetragonal,0.4998
SrS2,mp-1950,I4/mcm,tetragonal,1.5845
P3N5,mp-1954,Imm2,orthorhombic,2.8057
In2Co3S2,mp-19804,R-3m,rhombohedral,0.0111
Co3(SnS)2,mp-19807,R-3m,rhombohedral,0.0107
Tm3InN,mp-19847,Pm-3m,cubic,0.0061
ZnO,mp-1986,F-43m,cubic,0.8717
FeTe2,mp-19880,Pnnm,orthorhombic,0.0398
ThSnPt,mp-19886,F-43m,cubic,0.1002
FeP2,mp-20027,Pnnm,orthorhombic,0.0117
DyGa2,mp-20064,P6/mmm,hexagonal,0.0045
InAgS2,mp-20162,R-3m,rhombohedral,0.0939
AlFe3,mp-2018,Fm-3m,cubic,0.0043
CaMnSn,mp-20233,P4/nmm,tetragonal,0.0107
InAgO2,mp-20329,P6_3/mmc,hexagonal,0.5424
PrMnSi,mp-20333,P4/nmm,tetragonal,0.0009
ZrPbO3,mp-20337,Amm2,orthorhombic,2.8087
NaAuO2,mp-20343,Cmcm,orthorhombic,1.1599
Pr2O3,mp-2063,P-3m1,hexagonal,3.8952
DyMg,mp-2077,Pm-3m,cubic,0.0238
TbN,mp-2117,Fm-3m,cubic,0.4016
BaTe2,mp-2150,I4/mcm,tetragonal,0.117
TlF,mp-2175,Fm-3m,cubic,2.244
LuCd,mp-2217,Pm-3m,cubic,0.0007
ErMg,mp-2228,Pm-3m,cubic,0.0389
ZnO,mp-2229,Fm-3m,cubic,1.078
GeO2,mp-223,P3_221,hexagonal,3.2449
AgN3,mp-2247,Ibam,orthorhombic,1.8973
HgO2,mp-2278,C2/m,monoclinic,0.4222
Li3N,mp-2341,P6_3/mmc,hexagonal,1.628
Zr2Au,mp-2348,I4/mmm,tetragonal,0.0004
IrF3,mp-2437,R-3c,rhombohedral,1.2253
CdS,mp-2469,F-43m,cubic,0.9928
CaC2,mp-2482,I4/mmm,tetragonal,1.4436
SiOs,mp-2488,P2_13,cubic,0.037
C,mp-24,Ia-3,cubic,2.7427
LuHg,mp-2522,Pm-3m,cubic,0.0005
SrMg,mp-2564,Pm-3m,cubic,0.0058
BaTe,mp-2600,Pm-3m,cubic,0.7679
SrC2,mp-2630,I4/mmm,tetragonal,1.7961
Te2Ru,mp-267,Pnnm,orthorhombic,0.0915
Nd2O3,mp-2763,P-3m1,hexagonal,3.9597
GaN,mp-2853,Fm-3m,cubic,0.5089
YCuO2,mp-2918,P6_3/mmc,hexagonal,2.8443
BaTiO3,mp-2998,Pm-3m,cubic,1.7638
Sm4S3N2,mp-3062,C2/m,monoclinic,1.3025
NaNbO3,mp-3136,Pm-3m,cubic,1.6324
TlS,mp-322,I4/mcm,tetragonal,0.6785
BaSO4,mp-3307,F-43m,cubic,4.5619
SrZrO3,mp-3323,Pm-3m,cubic,3.4466
Sr2SnO4,mp-3376,I4/mmm,tetragonal,2.8677
BN,mp-344,Cc,monoclinic,3.7373
HgTe,mp-358,P3_121,hexagonal,0.1728
CdS,mp-370,Fm-3m,cubic,0.4287
TbNiSb,mp-3716,F-43m,cubic,0.0826
ZnSe,mp-380,P6_3mc,hexagonal,1.2554
ZnGeAs2,mp-4008,I-42d,tetragonal,0.4501
NaTaO3,mp-4170,Pm-3m,cubic,2.3316
Ba(CuS)2,mp-4255,I4/mmm,tetragonal,0.0845
KAsF6,mp-4266,R-3,rhombohedral,5.0937
KNbO3,mp-4342,P4mm,tetragonal,1.5254
DyNiSb,mp-4510,F-43m,cubic,0.0837
NaCuO2,mp-4541,C2/m,monoclinic,0.037
SrHfO3,mp-4551,Pm-3m,cubic,3.8856
BaCO3,mp-4559,R3m,rhombohedral,4.8281
TlSbTe2,mp-4573,R-3m,rhombohedral,0.0267
ScCuO2,mp-4636,R-3m,rhombohedral,2.3994
GeO2,mp-470,P4_2/mnm,tetragonal,1.3661
ZnSnSb2,mp-4756,I-42d,tetragonal,0.013
C,mp-47,P6_3/mmc,hexagonal,3.7645
Na2PdC2,mp-4823,P-3m1,hexagonal,0.8896
GaCuSe2,mp-4840,I-42d,tetragonal,0.7084
NiP2,mp-486,C2/c,monoclinic,0.1453
ScSnPd2,mp-4897,Fm-3m,cubic,0.0128
Co2B,mp-493,I4/mcm,tetragonal,0.0037
CdGeAs2,mp-4953,I-42d,tetragonal,0.4699
LuSb,mp-516,Fm-3m,cubic,0.1898
ZnSnAs2,mp-5190,I-42d,tetragonal,0.1185
SrTiO3,mp-5229,Pm-3m,cubic,1.8143
KNbO3,mp-5246,Amm2,orthorhombic,1.8877
RbCuC2,mp-5425,P4_2/mmc,tetragonal,2.1162
Ag2PdO2,mp-5495,Immm,orthorhombic,0.012
YSnPd2,mp-5538,Fm-3m,cubic,0.0102
AlTlF4,mp-5606,P4/mmm,tetragonal,4.5858
NdSF,mp-5760,P4/nmm,tetragonal,1.3112
AgNO2,mp-5770,Imm2,orthorhombic,1.2708
BaTiO3,mp-5777,Amm2,orthorhombic,2.2822
CaTiO3,mp-5827,Pm-3m,cubic,1.8686
RbCuC2,mp-5841,P4/mmm,tetragonal,2.0289
CaSiO3,mp-5893,Pm-3m,cubic,4.0205
LiAlGe,mp-5920,F-43m,cubic,0.2614
AgCNO,mp-6070,Cmcm,orthorhombic,2.0275
PrCuSO,mp-6166,P4/nmm,tetragonal,1.8558
HgS,mp-634,P3_121,hexagonal,1.3989
AgCNO,mp-6781,P2_1/m,monoclinic,3.1803
MnN,mp-6933,Fm-3m,cubic,0.0003
KNaO,mp-6948,P4/nmm,tetragonal,2.6491
YCuO2,mp-6972,R-3m,rhombohedral,2.8765
SiC,mp-7140,P6_3mc,hexagonal,2.6183
ScSbPt,mp-7173,F-43m,cubic,0.0955
CaZnSO,mp-7204,P6_3mc,hexagonal,2.8876
Ca3AsN,mp-7223,Pm-3m,cubic,0.759
NaCuTe,mp-7434,P4/nmm,tetragonal,0.7544
K2Sn2O3,mp-7502,R-3m,rhombohedral,1.2099
BaSe3,mp-7548,P-42_1m,tetragonal,0.9964
GeS2,mp-7582,I-42d,tetragonal,2.2182
SiS2,mp-7583,I-42d,tetragonal,3.0864
Mg2NF,mp-7589,I4_1/amd,tetragonal,2.508
NbAs2,mp-7598,C2/m,monoclinic,0.0074
SiB6,mp-7700,Pm-3m,cubic,0.0402
Na2UO4,mp-7725,I4/mmm,tetragonal,2.1654
Ba2ZnF6,mp-7739,I4/mmm,tetragonal,5.0987
NaAlO2,mp-7748,R-3m,rhombohedral,5.3087
Sr(ZnAs)2,mp-7770,P-3m1,hexagonal,0.48
SrSO4,mp-7811,F-43m,cubic,4.0244
HgO,mp-7826,P3_121,hexagonal,1.3072
AlAgS2,mp-7885,P3m1,hexagonal,1.8398
Mg3As2,mp-7891,P-3m1,hexagonal,1.1065
Rb2O2,mp-7895,Immm,orthorhombic,2.1767
K3P,mp-7897,P6_3/mmc,hexagonal,0.4816
SiO2,mp-7905,Ibam,orthorhombic,4.9363
KNbSe2,mp-7940,P6_3/mmc,hexagonal,0.8041
Li3Sb,mp-7955,P6_3/mmc,hexagonal,0.3163
Mg2SiO4,mp-7983,I4/mmm,tetragonal,4.0209
S,mp-7,R-3,rhombohedral,2.0424
BaThO3,mp-8037,Pm-3m,cubic,3.3381
SiC,mp-8062,F-43m,cubic,1.6198
ThSO,mp-8136,P4/nmm,tetragonal,1.2686
RbScO2,mp-8145,R-3m,rhombohedral,3.3994
LiTlO2,mp-8179,I4_1/amd,tetragonal,0.5616
AgNO3,mp-8196,R3m,rhombohedral,1.6004
ZrSO,mp-8231,P4/nmm,tetragonal,0.9562
BaTe3,mp-8234,P-42_1m,tetragonal,0.7548
GaN,mp-830,F-43m,cubic,1.7857
RbTe,mp-8360,Pbam,orthorhombic,0.8585
Li3NdAs2,mp-8406,P-3m1,hexagonal,0.091
RbNaO,mp-8453,P4/nmm,tetragonal,2.535
Ca2SiO4,mp-8682,I4/mmm,tetragonal,4.5154
TlN3,mp-870,I4/mcm,tetragonal,1.849
FeSi,mp-871,P2_13,cubic,0.0099
SnS,mp-8781,Aem2,orthorhombic,0.0754
HoN,mp-883,Fm-3m,cubic,0.3324
Na3As,mp-8860,Fm-3m,cubic,0.6758
AlP,mp-8880,P6_3mc,hexagonal,2.0495
AlAs,mp-8881,P6_3mc,hexagonal,1.8075
GaP,mp-8882,P6_3mc,hexagonal,1.2628
GaAs,mp-8883,P6_3mc,hexagonal,0.5154
ZnTe,mp-8884,P6_3mc,hexagonal,1.0786
TaCuN2,mp-8927,R-3m,rhombohedral,0.5781
Si2Mo,mp-8938,P6_222,hexagonal,0.0728
Si2W,mp-8939,P6_222,hexagonal,0.0401
Cu2WS4,mp-8976,P-42m,tetragonal,0.787
ZrPdF6,mp-9056,R-3,rhombohedral,3.4879
CaP3,mp-9122,P-1,triclinic,0.049
CaC2,mp-917,C2/m,monoclinic,2.383
SmCuSeO,mp-9194,P4/nmm,tetragonal,1.4738
HgS,mp-9252,P3_221,hexagonal,1.3993
DyCuSeO,mp-9304,P4/nmm,tetragonal,1.384
KAg2SbS4,mp-9490,I-42m,tetragonal,0.4272
Mg(AlC)2,mp-9514,P-3m1,hexagonal,2.0032
NaBeSb,mp-9574,P6_3/mmc,hexagonal,1.0869
TlGaSe2,mp-9580,I4/mcm,tetragonal,0.1924
Tl3AsS3,mp-9791,R3m,rhombohedral,1.0815
K3SbS4,mp-9911,I-43m,cubic,2.0417
HfS3,mp-9922,P2_1/m,monoclinic,1.1834
Ca2Sb,mp-9925,I4/mmm,tetragonal,0.0794
InAgSe2,mp-20554,I-42d,tetragonal,0.6772
Co3SnC,mp-20679,Pm-3m,cubic,0.018
Nd3PbC,mp-20808,Pm-3m,cubic,0.0185
PbO,mp-20878,Pbcm,orthorhombic,2.2918
GeO2,mp-20893,P3_121,hexagonal,0.9727
Sb2Ru,mp-20928,Pnnm,orthorhombic,0.0083
InCuO2,mp-20930,R-3m,rhombohedral,0.3844
RbPbF3,mp-21043,Pm-3m,cubic,3.4984
InSe,mp-21405,C2/m,monoclinic,0.8944
UNiSn,mp-21425,F-43m,cubic,0.0051
Tm3SnC,mp-21888,Pm-3m,cubic,0.0395
PbSe,mp-22009,Fmm2,orthorhombic,0.6903
SiSe2,mp-22142,Ibam,orthorhombic,1.6071
TlInSe2,mp-22232,I4/mcm,tetragonal,0.9733
Zn(InS2)2,mp-22253,P3m1,hexagonal,0.5177
SrAl2,mp-22318,Imma,orthorhombic,0.0003
NbRu3C,mp-22351,Pm-3m,cubic,0.0087
InAgTe2,mp-22386,I-42d,tetragonal,0.6646
HfPbO3,mp-22535,Pm-3m,cubic,2.5393
TlInS2,mp-22566,R-3m,rhombohedral,0.734
ThNiSn,mp-22786,F-43m,cubic,0.0449
TlInTe2,mp-22791,I4/mcm,tetragonal,0.0474
InCuSe2,mp-22811,I-42d,tetragonal,0.6206
NaCl,mp-22851,Pm-3m,cubic,4.3432
CrCl2,mp-22857,Pnnm,orthorhombic,0.1795
TlI,mp-22858,Cmcm,orthorhombic,2.1897
TlBr,mp-22875,Pm-3m,cubic,2.0225
AgI,mp-22894,P6_3mc,hexagonal,1.2844
CuI,mp-22895,Pc,monoclinic,1.2498
LiI,mp-22899,Fm-3m,cubic,4.582
KI,mp-22901,Pm-3m,cubic,3.6314
AgI,mp-22919,Fm-3m,cubic,0.3885
GaBiO3,mp-22979,Pm-3m,cubic,1.3525
Ag3SI,mp-22995,R3,rhombohedral,0.6611
BiOF,mp-23074,P4/nmm,tetragonal,3.258
AlBiO3,mp-23080,Pm-3m,cubic,2.0586
K2Os(Cl2O)2,mp-23097,I4/mmm,tetragonal,1.6054
TlCl,mp-23167,Pm-3m,cubic,2.2081
HgI2,mp-23173,Cmc2_1,orthorhombic,1.7445
TlI,mp-23197,Pm-3m,cubic,2.0399
Li3Bi,mp-23222,Fm-3m,cubic,0.1943
CuBr,mp-23227,P6_3/mmc,hexagonal,0.2191
AgBr,mp-23231,Fm-3m,cubic,1.0021
KCl,mp-23289,Pm-3m,cubic,5.3479
TbCl3,mp-23293,Cmcm,orthorhombic,3.581
RbCl,mp-23299,Pm-3m,cubic,5.3357
BiF3,mp-23301,Fm-3m,cubic,4.2451
RbI,mp-23302,Pm-3m,cubic,3.7483
RbBr,mp-23303,Pm-3m,cubic,4.4097
Rb2TeBr6,mp-23383,Fm-3m,cubic,1.9246
K2SnCl6,mp-23499,Fm-3m,cubic,2.1673
K2TeBr6,mp-23505,Fm-3m,cubic,1.8937
NaBeH3,mp-23729,Pm-3m,cubic,1.6673
GaHO2,mp-23803,Pmn2_1,orthorhombic,3.3154
NaHO,mp-23891,Cmcm,orthorhombic,3.1797
NaHO,mp-23940,P2_1/m,monoclinic,3.1955
RbCaH3,mp-23949,Pm-3m,cubic,3.3448
CuH,mp-24093,P6_3mc,hexagonal,0.044
LiNd2HO3,mp-24150,Immm,orthorhombic,2.0537
KH2N,mp-24428,P2_1/m,monoclinic,2.3828
Rb2CaH4,mp-24517,I4/mmm,tetragonal,3.3686
K2PtBr4,mp-27243,P4/mmm,tetragonal,1.606
KAuO2,mp-27418,Pmmm,orthorhombic,1.1812
Rb2SnI6,mp-27635,Fm-3m,cubic,0.2511
SO2,mp-27726,Aea2,orthorhombic,2.6464
ICl3,mp-27729,P-1,triclinic,1.5168