formula,mpid,space group,bravais lattice,gap opt
NaCaSiHO4,mp-634418,P2_1,monoclinic,4.8121
H4N2O3,mp-634429,Pmmn,orthorhombic,3.0871
NaHS,mp-634657,P2_1/m,monoclinic,3.3978
KHS,mp-634676,P2_1/m,monoclinic,3.4429
YbH2,mp-634751,Fm-3m,cubic,0.7176
ScF3,mp-634805,C2,monoclinic,4.8632
H2O,mp-634812,C222_1,orthorhombic,5.2344
TbOF,mp-634979,C2/m,monoclinic,3.2774
NaY2In,mp-635327,Fm-3m,cubic,0.0139
Ca2PI,mp-635393,P1,triclinic,1.6024
AlF3,mp-635425,P1,triclinic,7.7164
TiZnO3,mp-635713,P-1,triclinic,3.1213
GaFe2Co,mp-636212,Fm-3m,cubic,0.013
Nd3GaN,mp-636273,Pm-3m,cubic,0.0252
Ga3Fe,mp-636368,P4_2/mnm,tetragonal,0.0133
Pb3O4,mp-636813,Pbam,orthorhombic,1.0996
HfInNi2,mp-640024,Fm-3m,cubic,0.0187
Rb2CuCl3,mp-640053,Pnma,orthorhombic,2.2513
PbWO4,mp-641365,C2/c,monoclinic,3.3023
Nd3CuSiSe7,mp-641534,P6_3,hexagonal,1.4588
Si3N4,mp-641539,Pnma,orthorhombic,3.7815
Al2O3,mp-642363,Cmcm,orthorhombic,4.9266
BaP2(HO)4,mp-642646,Ccce,orthorhombic,5.2406
KP(HO)2,mp-642648,C2/c,monoclinic,5.3245
BaH2O3,mp-642649,P2_1/m,monoclinic,0.0014
BaH2O3,mp-642653,Pmc2_1,orthorhombic,3.0088
SrH2O3,mp-642654,Pmc2_1,orthorhombic,3.4694
Mg2CoH5,mp-642660,P4/nmm,tetragonal,0.2064
SrH2Cl2O,mp-642662,Pnma,orthorhombic,4.3373
CaHClO,mp-642725,P6_3mc,hexagonal,5.6219
CeH3(CO2)3,mp-642731,R3m,rhombohedral,0.0028
Rb2H4Pt,mp-642735,P4_2/mnm,tetragonal,3.2986
K3H5Pd,mp-642736,P4/mbm,tetragonal,2.9167
KHO,mp-642817,P2_1/c,monoclinic,4.1388
K3H5Pt,mp-642821,P4/mbm,tetragonal,3.0864
CaC2,mp-642822,P-1,triclinic,2.4901
RbP(HO2)2,mp-642831,I-42d,tetragonal,5.7734
BaH5ClO3,mp-642834,P4/nmm,tetragonal,5.2219
BaH5BrO3,mp-642844,P4/nmm,tetragonal,5.0809
Rb3H5Pt,mp-642845,P4/mbm,tetragonal,2.6232
TbH3(CO2)3,mp-642991,R3m,rhombohedral,4.0418
Li4H6Os,mp-642996,R-3c,rhombohedral,2.7436
TmH3(CO2)3,mp-642999,R3m,rhombohedral,3.9601
Na4H6Ru,mp-643001,R-3c,rhombohedral,2.0224
Mg2H6Os,mp-643002,Fm-3m,cubic,3.4166
SrMgH4,mp-643009,Cmc2_1,orthorhombic,3.0501
Rb3H5Pd,mp-643022,P4/mbm,tetragonal,2.6369
Mg2H4Ru,mp-643023,Cmcm,orthorhombic,0.9858
SrH4(ClO)2,mp-643026,C2/c,monoclinic,5.3813
KPH2SO3,mp-643033,Cm,monoclinic,4.796
RbHO,mp-643043,P2_1/m,monoclinic,3.4814
Ba3(H6Ir)2,mp-643047,P-3m1,hexagonal,3.092
Mg3ReH7,mp-643061,P6_3/mmc,hexagonal,2.6867
H4IN,mp-643062,P4/nmm,tetragonal,3.7918
ZnH2SO5,mp-643066,C2/c,monoclinic,4.7309
Ca4Mg3H14,mp-643070,P-62m,hexagonal,3.3651
Na2AlH4ClO4,mp-643248,P4/nmm,tetragonal,4.7583
Na2H4Pd,mp-643260,I4/mmm,tetragonal,2.585
Na3VH6O7,mp-643263,R3,rhombohedral,3.891
K3ZnH5,mp-643270,I4/mcm,tetragonal,3.8627
Ca(HO)2,mp-643392,P2_1/c,monoclinic,4.7106
NaInH8(NF3)2,mp-643394,Fm-3m,cubic,5.3489
H8Pd(NCl3)2,mp-643397,Fm-3m,cubic,1.0855
AgH4WS4N,mp-643431,I-4,tetragonal,1.6886
RbP(HO2)2,mp-643791,P2_1/m,monoclinic,5.4942
BN,mp-644751,Pnma,orthorhombic,5.91
Na4CO4,mp-645295,Cm,monoclinic,3.761
Rb4CO4,mp-645300,Amm2,orthorhombic,0.2143
FeCl3,mp-645418,P1,triclinic,0.006
HgC2(SN)2,mp-655275,C2/m,monoclinic,2.0918
SiO2,mp-600001,P-4m2,tetragonal,5.4523
PdO,mp-603251,Pm-3m,cubic,0.006
MgSiO3,mp-603907,C2/c,monoclinic,5.5426
AlTlI4,mp-607829,P2_1/c,monoclinic,3.3272
K2Ge2Pb2O7,mp-608014,P-3,hexagonal,3.2424
KTeOF3,mp-612946,P2_1,monoclinic,4.2966
ZrZn,mp-614444,Fm-3m,cubic,0.0472
YClO,mp-614918,P4/nmm,tetragonal,1.8926
Pb(ClO2)2,mp-615141,Ccce,orthorhombic,1.1818
Na2ZnCl4,mp-616461,Pnma,orthorhombic,4.6214
RbPbIO6,mp-616564,P6_322,hexagonal,1.4202
NaSr2AlP3,mp-620652,C2/m,monoclinic,0.2942
YPbAu,mp-621592,F-43m,cubic,0.0357
AgPb2Br5,mp-621612,C2/c,monoclinic,1.9074
K2RbBiSe3,mp-621964,P2_13,cubic,2.0923
Ba2ZnAg2(SeO)2,mp-622268,Cmce,orthorhombic,1.1474
MnTePd,mp-622980,F-43m,cubic,0.0078
TiCdF6,mp-623024,R-3,rhombohedral,4.3411
Ta2O5,mp-624688,C2,monoclinic,2.5193
NaHO,mp-625051,R3m,rhombohedral,3.7162
Cd(HO)2,mp-625094,P1,triclinic,1.7984
AlHO2,mp-625152,Pnma,orthorhombic,6.0612
NdHO2,mp-625359,P2_1,monoclinic,4.1856
LuHO2,mp-625367,P2_1,monoclinic,4.3044
HNO,mp-625377,C2/c,monoclinic,3.0943
Lu(HO)3,mp-625392,R-3,rhombohedral,5.0886
Nd(HO)3,mp-625397,P6_3/m,hexagonal,3.7678
Sm(HO)3,mp-625402,P6_3/m,hexagonal,3.7575
Nd(HO)3,mp-625403,P2_1/m,monoclinic,3.7691
AlHO2,mp-625404,Pnma,orthorhombic,6.177
Sm(HO)3,mp-625409,P2_1/m,monoclinic,3.7574
Tb(HO)3,mp-625415,P2_1/m,monoclinic,3.7884
H2SO4,mp-625445,Cc,monoclinic,6.1628
Pr(HO)3,mp-625447,P6_3/m,hexagonal,3.7552
Pr(HO)3,mp-625452,Pm,monoclinic,3.7536
Tm(HO)3,mp-625465,P2_1/m,monoclinic,3.8224
Lu(HO)3,mp-625468,R-3,rhombohedral,5.1106
Tm(HO)3,mp-625472,P6_3/m,hexagonal,3.8218
H2SO4,mp-625475,C2,monoclinic,6.4818
H3BrO,mp-625509,Cm,monoclinic,4.4678
H3BrO,mp-625521,Cm,monoclinic,4.4682
H7BrO3,mp-625555,Cc,monoclinic,4.0763
H7BrO3,mp-625560,Cc,monoclinic,4.3915
H7BrO3,mp-625583,P1,triclinic,4.2704
H4N2O3,mp-625619,C2,monoclinic,0.0016
GaHO2,mp-625621,Fdd2,orthorhombic,2.1062
GaHO2,mp-625628,Fdd2,orthorhombic,3.306
ScHO2,mp-625663,Pnma,orthorhombic,4.5839
Y(HO)3,mp-625677,P6_3,hexagonal,3.8969
Y(HO)3,mp-625718,P2_1/m,monoclinic,3.8966
Ba(H2O3)2,mp-625809,C2/c,monoclinic,2.5046
Sr(H2O3)2,mp-625812,C2/c,monoclinic,2.7562
Sr(H2O3)2,mp-625821,C2/c,monoclinic,2.8298
Be(HO)2,mp-625823,P2_12_12_1,orthorhombic,5.7455
Zn(HO)2,mp-625826,P2_12_12_1,orthorhombic,2.8912
Zn(HO)2,mp-625830,P2_12_12_1,orthorhombic,3.0681
Ba(H2O3)2,mp-625832,Cc,monoclinic,2.5137
Sr(H2O3)2,mp-625836,Cc,monoclinic,3.1298
Be(HO)2,mp-625837,P2_12_12_1,orthorhombic,5.7466
Zn(HO)2,mp-625857,P2_1,monoclinic,3.0679
Sr(H2O3)2,mp-625871,Cc,monoclinic,0.0038
Ba(HO2)2,mp-625873,P2_1/c,monoclinic,3.0834
Ta2H4O7,mp-625886,Fddd,orthorhombic,2.9337
Ba(H2O3)2,mp-625909,P1,triclinic,2.9514
Ta2H4O7,mp-625920,Fd-3m,cubic,0.3515
H5NO,mp-625924,P2_12_12_1,orthorhombic,4.8189
Te(HO)6,mp-625941,Fmm2,orthorhombic,2.1247
Te(HO)6,mp-625993,P1,triclinic,2.656
NaHO,mp-625996,Pm,monoclinic,3.6517
NaHO,mp-626000,P2_1,monoclinic,3.8102
Te(HO)6,mp-626012,P1,triclinic,3.1032
H4N2O3,mp-626113,Pmmn,orthorhombic,2.6053
Mg(HO)2,mp-626149,P3m1,hexagonal,4.4109
YHO2,mp-626151,P2_1/m,monoclinic,4.3676
Al5HO8,mp-626161,P6_3mc,hexagonal,5.2662
HoHO2,mp-626173,P2_1,monoclinic,4.1825
SbHO3,mp-626182,I4_1/amd,tetragonal,1.169
SbHO3,mp-626218,Fdd2,orthorhombic,1.263
PbS,mp-20526,Aem2,orthorhombic,0.3479
GaTeCl,mp-27449,Pnnm,orthorhombic,2.0052
AlClO,mp-27863,Pmmn,orthorhombic,5.9417
AlICl6,mp-27935,P2_1,monoclinic,2.1337
SCl,mp-28096,Fdd2,orthorhombic,2.5297
Ca2IN,mp-28553,P6_3/mmc,hexagonal,2.4055
CaThBr6,mp-29015,Pmma,orthorhombic,2.2982
TlAgSe,mp-29238,Pnma,orthorhombic,0.6704
AsCl3O,mp-29863,P2_1/c,monoclinic,2.3256
MgGeO3,mp-3047,Cmcm,orthorhombic,2.7341
Ag2S,mp-31053,P2_1,monoclinic,0.1267
MgSiO3,mp-4391,Cmcm,orthorhombic,5.2622
YN,mp-6913,P6_3/mmc,hexagonal,0.7815
YbCo3B2,mp-10058,P6/mmm,hexagonal,0.0031
GaSe,mp-11342,R3m,rhombohedral,0.8347
Na2GeF6,mp-17438,P-3m1,hexagonal,5.6875
Na2SiF6,mp-17939,P-3m1,hexagonal,7.266
ZrNiP,mp-21204,P6_3/mmc,hexagonal,0.0018
FePb2(CN)6,mp-21239,P-3,hexagonal,3.3468
AgClO2,mp-22959,Pcca,orthorhombic,0.8367
AlCl3,mp-25469,C2/m,monoclinic,5.2539
BeBr2,mp-30139,Ibam,orthorhombic,5.4295
ScOF,mp-4662,P2_1/c,monoclinic,4.586
Nd2O3,mp-7954,P6/mmm,hexagonal,1.5767
Li(TiSe2)3,mp-8132,P-3m1,hexagonal,0.0082
LiScMo3O8,mp-19433,P3m1,hexagonal,1.2363
KCN,mp-20134,Cm,monoclinic,4.967
NaFeS2,mp-28100,I222,orthorhombic,0.013
Hg2IO,mp-28136,C2/c,monoclinic,0.8828
KAuBr4,mp-29694,P2_1/c,monoclinic,0.177
ErF3,mp-9371,Pnma,orthorhombic,8.103
KInBr4,mp-22932,Pnna,orthorhombic,2.7166
YF3,mp-2416,Pnma,orthorhombic,7.9013
NaBH4,mp-24810,Pnma,orthorhombic,6.4291
B2O3,mp-306,P3_121,hexagonal,6.5413
SnGeS3,mp-5045,P2_1/c,monoclinic,1.2938
As2S3,mp-641,P2_1/c,monoclinic,2.0484
Ta2PdS6,mp-8435,C2/m,monoclinic,0.0062
Na2Cu3(GeO3)4,mp-18637,P-1,triclinic,0.0019
SbCl4F,mp-23412,I-4,tetragonal,1.2155
Ca2MgSi2O7,mp-6094,P-42_1m,tetragonal,4.7869
KAl(SO4)2,mp-7645,P-3m1,hexagonal,6.056
BaF2,mp-8644,P6_3/mmc,hexagonal,5.8651
PHF4,mp-29514,P2_1/c,monoclinic,7.5475
PH2F3,mp-29515,Cmc2_1,orthorhombic,6.6515
CuAuSe4,mp-30151,P2_1/m,monoclinic,0.0151
Na3YCl6,mp-31362,P2_1/c,monoclinic,5.1734
Ti9O10,mp-32813,P-1,triclinic,0.0019
BaLu2O4,mp-780535,Cmcm,orthorhombic,3.0693
Na2BiO3,mp-780656,Fdd2,orthorhombic,1.1011
Fe4O5F3,mp-781080,P2_1,monoclinic,0.0011
VOF3,mp-781081,P2_1,monoclinic,2.8604
Ca3WO6,mp-781505,R-3,rhombohedral,3.3283
Ni2Mo,mp-784630,Immm,orthorhombic,0.0002
TiO2,mp-849533,Pnma,orthorhombic,2.6652
Mn6O7F5,mp-849538,P1,triclinic,0.0052
FeO2,mp-850222,P4_2/mnm,tetragonal,0.0091
SrCaI4,mp-850277,Imma,orthorhombic,3.5128
SrCaI4,mp-850279,P2_1/c,monoclinic,3.1132
Na8SnO6,mp-850280,R-3,rhombohedral,2.0197
SrCaI4,mp-850305,I4_1/a,tetragonal,3.7859
LiVPHO5,mp-850399,P-1,triclinic,0.0005
VOF3,mp-850876,P1,triclinic,2.6585
Fe3(O2F)2,mp-850901,P2_1/c,monoclinic,0.0038
ScAlIr2,mp-861507,Fm-3m,cubic,0.0087
Pr2ZnIr,mp-861508,Fm-3m,cubic,0.0081
Er2TlCd,mp-861628,Fm-3m,cubic,0.0189
Ti2AlTc,mp-861637,Fm-3m,cubic,0.0142
TiSnO4,mp-773864,I-4m2,tetragonal,2.269
NaMn2O4,mp-774174,Cmcm,orthorhombic,0.0019
Li2VO3,mp-774192,P1,triclinic,0.0046
Li4Mn3F10,mp-774371,P-1,triclinic,0.0041
Li2MnF4,mp-774430,Cmcm,orthorhombic,0.0017
PrSO,mp-774472,Cm,monoclinic,1.5728
Li3BiO4,mp-774702,P2/c,monoclinic,1.4123
LiCuS,mp-774712,P6_3/mmc,hexagonal,0.9671
LiCuS,mp-774736,P1,triclinic,1.6591
KLiZnS2,mp-774907,I-4m2,tetragonal,2.5922
LiSb(TeO4)3,mp-774910,P1,triclinic,1.3313
HfO2,mp-775757,Pbca,orthorhombic,4.0334
AgClO3,mp-775761,P2_13,cubic,2.8896
AgAsO3,mp-775767,C2/c,monoclinic,0.5635
AgBiO3,mp-775774,Cmmm,orthorhombic,0.0094
Zr2N2O,mp-775805,C2,monoclinic,2.1018
MgO,mp-775808,Cm,monoclinic,3.8352
ZrO2,mp-775909,P4_2/mnm,tetragonal,3.598
ZrO2,mp-775935,P-1,triclinic,4.0052
K2O,mp-776081,P2_1,monoclinic,2.1061
Zr2N2O,mp-776250,P-1,triclinic,1.1242
HfO2,mp-776532,P4_2/mnm,tetragonal,3.9504
Li2Fe3F8,mp-776732,R-3m,rhombohedral,0.0045
MgO,mp-776911,P6_3mc,hexagonal,3.8568
Na2O,mp-776952,P3,hexagonal,2.0282
DyHO2,mp-777422,Pmn2_1,orthorhombic,4.9159
V5O12,mp-777580,P1,triclinic,0.0108
Na7NbO6,mp-777584,R3,rhombohedral,3.0174
BaYF5,mp-778079,P4/mmm,tetragonal,6.6958
Ge2N2O,mp-778194,Cc,monoclinic,2.5329
In3NO3,mp-778848,R-3m,rhombohedral,0.6936
ZnSeO4,mp-778924,Pnma,orthorhombic,2.3179
Tm3TaO7,mp-779012,Cmcm,orthorhombic,3.4315
TbNbO4,mp-780033,P4/nbm,tetragonal,3.2787
Tm2TeO6,mp-772191,P321,hexagonal,3.1892
TmClO,mp-772222,P4/nmm,tetragonal,5.218
Mn2Fe3Co3O16,mp-772328,Cm,monoclinic,0.0017
YTh4O10,mp-772510,I4/m,tetragonal,4.7545
MnZnO3,mp-772528,Pnma,orthorhombic,0.0031
SmCuO3,mp-772548,R-3c,rhombohedral,0.0149
CrO3,mp-772550,C2/c,monoclinic,2.1112
Al2CO,mp-772624,Pna2_1,orthorhombic,2.9686
Na3SiSbCO7,mp-772713,P2_1/m,monoclinic,3.2354
Na3CuCSO7,mp-772726,P2_1/m,monoclinic,1.899
LuBiO3,mp-772801,R-3,rhombohedral,2.4981
KSnPCO7,mp-772809,P2_1,monoclinic,3.2034
Li3Cu3TeO8,mp-772822,R-3m,rhombohedral,0.0012
Mn(CoO2)4,mp-773238,C2/m,monoclinic,0.0028
Te3WO12,mp-773515,P-1,triclinic,1.7442
Na2InPCO7,mp-767521,P2_1/m,monoclinic,2.9942
Na2LuPCO7,mp-767562,P2_1/m,monoclinic,4.7357
Na2TmPCO7,mp-767566,P2_1/m,monoclinic,4.7084
Li8SbS6,mp-768171,R-3,rhombohedral,2.5439
Dy2SO2,mp-768175,P6_3/mmc,hexagonal,2.8656
TmTaO4,mp-768176,Cmc2_1,orthorhombic,3.6354
BeH2,mp-768203,Ibam,orthorhombic,5.7844
YBiO3,mp-768221,R3c,rhombohedral,3.1694
SmTaO4,mp-768230,Cmc2_1,orthorhombic,3.5448
YHO2,mp-768231,P6_3/mmc,hexagonal,4.3614
BaY2F8,mp-768240,C2/m,monoclinic,7.3068
Dy2Ge2O7,mp-768241,C2,monoclinic,3.9196
DyNbO4,mp-768303,I4_1/amd,tetragonal,3.941
Sr2HfO4,mp-768305,I4/mmm,tetragonal,3.7709
BaSO3,mp-768307,P2_1/m,monoclinic,4.7205
ScInO3,mp-768358,P6_3/mmc,hexagonal,2.4006
TmHO2,mp-768422,P2_1/c,monoclinic,5.0463
YScO3,mp-768479,P6_3/mmc,hexagonal,3.3249
PrAsO4,mp-768863,I4_1/amd,tetragonal,3.9595
KNdO2,mp-768864,P6_3/mmc,hexagonal,3.797
Ho2TeO2,mp-768908,P-3m1,hexagonal,0.7149
PrOF,mp-769173,R-3m,rhombohedral,4.4194
Dy2SeO2,mp-769253,I4/mmm,tetragonal,2.3813
Dy2SeO2,mp-769284,P-3m1,hexagonal,2.3072
Y2Ge2O7,mp-769466,C2/m,monoclinic,4.0552
LiMn4O8,mp-769702,C2/m,monoclinic,0.0022
Ba3Ti2O7,mp-770118,Fmm2,orthorhombic,2.2383
Li3CuSbO5,mp-767395,P1,triclinic,0.0042
Li5SbS,mp-767409,P4/mmm,tetragonal,0.929
K2AlPCO7,mp-767417,P2_1/m,monoclinic,5.1745
Na3CdPCO7,mp-767430,P2_1/m,monoclinic,3.4217
Na3SrPCO7,mp-767431,P2_1/m,monoclinic,4.2115
Na2YPCO7,mp-767462,P2_1/m,monoclinic,4.7244
Mn6OF11,mp-765719,P1,triclinic,0.0035
K2TeI6,mp-27688,P2_1/c,monoclinic,1.6414
PH4Br,mp-27689,P4/nmm,tetragonal,4.1705
Y6UO12,mp-27698,R-3,rhombohedral,1.9749
RbCoCl3,mp-27707,P6_3/mmc,hexagonal,0.005
H3OF,mp-27714,Pnma,orthorhombic,6.9426
PdI2,mp-27747,P2_1/c,monoclinic,0.6501
SrBe3O4,mp-27791,P-62c,hexagonal,4.2683
PICl6,mp-27824,P-42_1m,tetragonal,1.9811
Hg3(TeBr)2,mp-27853,I2_13,cubic,1.6526
NbAlO4,mp-27927,C2/m,monoclinic,3.3702
AlCuCl4,mp-28020,P-42c,tetragonal,2.7418
Hf(BH4)4,mp-28040,P-43m,cubic,5.4157
Na3ErCl6,mp-28542,P2_1/c,monoclinic,5.4849
RbAsSe2,mp-28562,C2/c,monoclinic,1.6074
ThB2O5,mp-28641,C2/c,monoclinic,5.3908
Si3PH9,mp-28842,P2_1/c,monoclinic,4.0993
KH3F4,mp-29331,R-3c,rhombohedral,7.7747
Na4CO4,mp-546707,I-42m,tetragonal,2.4905
KNO2,mp-546787,Cm,monoclinic,2.5182
Rb(CO)2,mp-546810,C2/m,monoclinic,2.7601
SrSnO3,mp-546973,Pm-3m,cubic,1.2637
Na3SO4F,mp-547029,P-43m,cubic,4.6276
Rb4CO4,mp-547898,I-42m,tetragonal,0.3513
CaCO3,mp-548403,C222_1,orthorhombic,5.883
U(BiO3)2,mp-548598,P-3m1,hexagonal,1.6645
RbPO3,mp-548658,Cmcm,orthorhombic,4.7966
RbClO2,mp-549590,Cmcm,orthorhombic,2.4242
K4CO4,mp-549687,I-42m,tetragonal,1.3293
MgO,mp-549706,P6_3mc,hexagonal,3.7976
K4CO4,mp-549869,I-42m,tetragonal,3.2045
Rb4CO4,mp-550314,R3,rhombohedral,2.5143
BeZnO2,mp-550433,I-42d,tetragonal,2.9715
KClO3,mp-550506,R3m,rhombohedral,5.0434
Rb4CO4,mp-550679,I222,orthorhombic,2.0022
RbClO4,mp-550759,F-43m,cubic,5.5037
HfO2,mp-550893,Fm-3m,cubic,4.0368
K4CO4,mp-550895,Cm,monoclinic,1.951
Rb4CO4,mp-551267,Cm,monoclinic,0.3233
Rb4CO4,mp-551437,Cm,monoclinic,1.664
K4CO4,mp-551561,C2,monoclinic,2.9388
K4CO4,mp-551736,P-43m,cubic,3.2077
Zn2P2O7,mp-551741,C2/m,monoclinic,4.0558
AgClO4,mp-551758,F-43m,cubic,2.4002
AlPO4,mp-551798,I-4m2,tetragonal,0.0474
Na4CO4,mp-551886,P-43m,cubic,2.5589
AlBiO3,mp-551918,R3c,rhombohedral,2.9166
PbCClO2,mp-552056,C2/m,monoclinic,2.9103
Ba2PrNbO6,mp-552176,R-3,rhombohedral,3.1151
Ba2TaBiO6,mp-552200,Fm-3m,cubic,2.7713
Na4CO4,mp-552623,R3,rhombohedral,2.5575
Na4CO4,mp-552941,R3,rhombohedral,2.4988
Rb4CO4,mp-552966,P-4,tetragonal,2.5121
TiO2,mp-553432,P3_121,hexagonal,3.4833
Zr2SN2,mp-553875,P-3m1,hexagonal,0.8611
SiO2,mp-553881,Pc,monoclinic,4.0356
CaCO3,mp-553939,Pnma,orthorhombic,4.7816
SNF,mp-554025,R-3,rhombohedral,3.8732
H6CNF,mp-554051,R3m,rhombohedral,6.1632
K2CO3,mp-554072,C2/c,monoclinic,4.2656
SnS,mp-554134,Aem2,orthorhombic,1.5768
NaSO4,mp-554328,P-1,triclinic,3.6395
CaF2,mp-554355,P4/mmm,tetragonal,5.2502
Mg2SiO4,mp-554396,P-3m1,hexagonal,4.6537
RbFeF3,mp-554465,Pm-3m,cubic,0.0424
TbTaO4,mp-554593,C2/c,monoclinic,4.0635
Sm2Ta2Cl2O7,mp-554623,C2/m,monoclinic,3.2127
K3Sb2N2O6F7,mp-554645,C2/m,monoclinic,3.0323
Mg2SiO4,mp-554663,P-3m1,hexagonal,5.0171
SiO2,mp-554665,P4_2/mcm,tetragonal,4.9032
SrTa2Bi2O9,mp-554675,I4/mmm,tetragonal,2.2173
Mg3B(HO2)3,mp-554719,P6_3/m,hexagonal,3.634
MoSBr,mp-554769,F-43m,cubic,0.8846
KRb2BiF6,mp-554941,Fm-3m,cubic,4.9682
NaI(OF)2,mp-554948,Cmcm,orthorhombic,4.1286
K2Al2Sb2O7,mp-554959,P-3m1,hexagonal,3.6171
Ta2Tl3Cu3S8,mp-554994,C2,monoclinic,1.8427
KCrF3,mp-555036,Pm-3m,cubic,0.0093
Cd(CO2)2,mp-555064,P2_1/c,monoclinic,3.3275
Tb2SnS5,mp-555069,Pbam,orthorhombic,0.1618
Sn2IF3,mp-555077,C222_1,orthorhombic,2.5441
SiO2,mp-555147,Cc,monoclinic,5.6463
KTeHOF4,mp-555202,P2_1,monoclinic,5.2492
SiO2,mp-555251,Ima2,orthorhombic,5.59
K2Th(CuS2)2,mp-555425,C2/m,monoclinic,1.0665
KRb2NiF6,mp-555464,Fm-3m,cubic,4.2614
Sr(ClO2)2,mp-555474,Ccce,orthorhombic,2.4194
Ag2H3IO6,mp-555477,R-3,rhombohedral,0.5507
SiO2,mp-555483,Fddd,orthorhombic,5.7474
KNaSO4,mp-555552,P-3m1,hexagonal,5.6429
BaU(SiO4)2,mp-555561,Cmcm,orthorhombic,2.4675
BaF2,mp-555585,Pnma,orthorhombic,7.0908
LuPO4,mp-555586,I4_1/a,tetragonal,6.1399
SiO2,mp-555740,Ia-3,cubic,5.9529
YF3,mp-556242,Pm-3m,cubic,5.773
Rb2NaNiF6,mp-556353,Fm-3m,cubic,5.0017
SiO2,mp-556662,C2,monoclinic,5.7014
MgAl2O4,mp-556870,Cmcm,orthorhombic,5.4815
KSbF6,mp-556888,P4_2/mcm,tetragonal,4.9477
Na2S,mp-556978,Pnma,orthorhombic,2.3593
SiO2,mp-556985,P1,triclinic,5.6798
SiO2,mp-556994,P1,triclinic,5.5026
SiO2,mp-557118,C222_1,orthorhombic,5.6727
SiO2,mp-557134,C2,monoclinic,5.5808
AlTlF4,mp-557233,I4/mcm,tetragonal,4.4228
SiO2,mp-557244,I2_12_12_1,orthorhombic,5.4731
Tl2CS3,mp-557251,C2/c,monoclinic,1.6988
Cu3TeS3Cl,mp-557510,R3m,rhombohedral,0.8482
Al2BiS4,mp-557737,P4/nnc,tetragonal,2.6423
SiO2,mp-557837,C2/c,monoclinic,5.8716
BaAg2(HgO2)2,mp-557862,P4/nbm,tetragonal,1.2212
RbClO3,mp-23011,R3m,rhombohedral,5.384
BaCl2,mp-23199,Pnma,orthorhombic,4.9868
KNa(BH4)2,mp-23758,R-3m,rhombohedral,6.4147
K(BH)3,mp-23950,Fm-3m,cubic,4.9163
H4NClO,mp-24019,P2_1/c,monoclinic,5.5832
Zr3GeO8,mp-27888,I-42m,tetragonal,4.1427
YClO,mp-27985,P4/nmm,tetragonal,5.089
H2O2,mp-28015,P4_12_12,tetragonal,4.6031
SiBi2O5,mp-28144,Cmc2_1,orthorhombic,2.8125
PrZr3F15,mp-28781,R3m,rhombohedral,6.0686
V3Sb2,mp-29617,R-3m,rhombohedral,0.0071
HoClO,mp-29731,P4/nmm,tetragonal,5.2077
RbHF2,mp-29764,Ima2,orthorhombic,7.148
NaCN,mp-30053,Pmmn,orthorhombic,5.1676
H2O,mp-32959,P4_2nm,tetragonal,5.7197
KY3F10,mp-34042,R3m,rhombohedral,6.1578
Be(CN)2,mp-35687,P4_2nm,tetragonal,6.0238
MgAgSb,mp-1018797,P4/nmm,tetragonal,0.0053
NdTeCl,mp-1018818,P4/nmm,tetragonal,0.1429
PdCl2,mp-1018888,P2/m,monoclinic,0.0396
PrCoSi,mp-1018892,P4/nmm,tetragonal,0.008
PrTeCl,mp-1018941,P4/nmm,tetragonal,0.1409
Re2N,mp-1018948,P6_3/mmc,hexagonal,0.0042
RbMnBi,mp-1018949,P4/nmm,tetragonal,0.0051
ReN2,mp-1019083,P6_3/mmc,hexagonal,0.0048
KMgAs,mp-1019089,P4/nmm,tetragonal,1.3694
SiC2,mp-1019097,P4_2/mmc,tetragonal,0.0289
SmMnSi,mp-1019102,P4/nmm,tetragonal,0.0034
KMgBi,mp-1019105,P4/nmm,tetragonal,0.5493
SmCoSi,mp-1019108,P4/nmm,tetragonal,0.0016
SrF2,mp-1019258,P6_3/mmc,hexagonal,6.4743
Sr2H3I,mp-1019269,P-3m1,hexagonal,2.3456
Th2HN3,mp-1019323,P3m1,hexagonal,1.7602
ThTeAs,mp-1019363,P4/nmm,tetragonal,0.0191
Al3GaN4,mp-1019378,P-43m,cubic,3.6414
AlB3N4,mp-1019379,P-43m,cubic,3.8886
Al3BN4,mp-1019380,P-43m,cubic,3.5983
AlGa3N4,mp-1019508,P-43m,cubic,2.4199
Ba2Mg(BO2)6,mp-1019528,R-3,rhombohedral,5.7171
BaAl2(SiO4)2,mp-1019535,P-3,hexagonal,5.0194
BaCa3O4,mp-1019541,Pm-3m,cubic,2.3033
BaZrO3,mp-1019544,I4/mcm,tetragonal,3.2003
BeGeN2,mp-1019550,Pna2_1,orthorhombic,3.5244
BaNa2Mg(PO4)2,mp-1019551,P-3m1,hexagonal,5.3139
BaSr2Mg(SiO4)2,mp-1019558,P-3m1,hexagonal,5.2615
Ca2GeO4,mp-1019561,P-3m1,hexagonal,3.8709
Ca2SiO4,mp-1019562,P-3m1,hexagonal,4.4991
Ca2SiO4,mp-1019563,P6_3mc,hexagonal,4.5147
Ca6Ge2O,mp-1019564,Fm-3m,cubic,0.2108
CaAl2SiO6,mp-1019586,C2,monoclinic,4.915
CaAl2SiO6,mp-1019587,Cc,monoclinic,5.0072
GaB3N4,mp-1019740,P-43m,cubic,3.9758
HeSiO2,mp-1019742,R-3c,rhombohedral,6.8687
Ga3BN4,mp-1019743,P-43m,cubic,2.6243
K4P2O7,mp-1019796,P6_3/mmc,hexagonal,3.7681
K8NO3,mp-1019799,Pm-3m,cubic,1.5616
K8N3O,mp-1019800,Pm-3m,cubic,1.4525
K8PO3,mp-1019801,Pm-3m,cubic,1.6728
KNa2BN2,mp-1019888,I4/mmm,tetragonal,2.2096
Li4Ca2Mg(SiN3)2,mp-1020016,C2/m,monoclinic,3.5118
Li8NO3,mp-1020020,Pm-3m,cubic,4.2733
Li8PO3,mp-1020029,Pm-3m,cubic,2.2019
LiCaMgSiN3,mp-1020108,C2/m,monoclinic,3.0809
Mg2SiO4,mp-1020110,P-1,triclinic,4.2592
Mg2SiO4,mp-1020112,Cmc2_1,orthorhombic,5.0654
MgS2O7,mp-1020122,P-1,triclinic,5.9567
Sr4S3O,mp-1020578,Pm-3m,cubic,2.1762
ZrSiO4,mp-1020588,P2/c,monoclinic,4.0832
Rb8NO3,mp-1020591,Pm-3m,cubic,1.1841
Zn2SiO4,mp-1020594,Pnma,orthorhombic,2.91
Rb8PO3,mp-1020595,Pm-3m,cubic,1.3815
SiP2O7,mp-1020608,P2_1/c,monoclinic,5.4859
Zn2SiO4,mp-1020610,Pbca,orthorhombic,2.681
SrZrO3,mp-1020622,P4/mbm,tetragonal,3.3808
Rb8N3O,mp-1020625,Pm-3m,cubic,1.0582
SrGe(PO4)2,mp-1020628,C2/c,monoclinic,4.3394
ZnGeO3,mp-1020631,R3c,rhombohedral,1.5633
RbMgBO3,mp-1020633,P2_13,cubic,4.6781
Na8NO3,mp-1020645,Pm-3m,cubic,1.6278
Sr3Ge2(B3O8)2,mp-1020650,P-1,triclinic,4.5593
SiGeN2O,mp-1020703,Cm,monoclinic,3.5228
ZnSiN2,mp-1020712,Pna2_1,orthorhombic,3.534