formula,mpid,space group,bravais lattice,gap opt
Zn2SiO4,mp-1020717,Imma,orthorhombic,2.4487
Na2ZnSe2,mp-1021465,Ibam,orthorhombic,1.9584
Sn4SF6,mp-1021490,R3,rhombohedral,2.6925
Cd4SF6,mp-1021492,R-3m,rhombohedral,0.8326
Cd5(S2Cl)2,mp-1021494,Cm,monoclinic,1.3682
LuO3,mp-1021512,Im-3,cubic,1.5292
K2Sn,mp-1021516,Fm-3m,cubic,1.1528
AlSi,mp-1021666,Pm-3m,cubic,0.004
TiAgSe2,mp-1021670,R3m,rhombohedral,0.0005
Cu3O2,mp-1022728,I4/mmm,tetragonal,0.0211
Na2H6Ir,mp-1022729,Fm-3m,cubic,3.8519
AlSb,mp-1023918,Cmcm,orthorhombic,0.0002
Na2Zn2Se3,mp-1024049,C2/c,monoclinic,1.5739
Na2Zn3Se4,mp-1024050,Ibam,orthorhombic,1.5046
Na2ZnS2,mp-1024067,P2_1/c,monoclinic,2.3784
Na2Zn3S4,mp-1024069,Ibam,orthorhombic,2.2022
FeCoSn,mp-1025124,P6_3/mmc,hexagonal,0.0158
MgSi2,mp-1025126,Imma,orthorhombic,0.0006
Lu2Cr2C3,mp-1025175,C2/m,monoclinic,0.0009
Tm2Cr2C3,mp-1025181,C2/m,monoclinic,0.0087
ScGa5Ni,mp-1025191,P4/mmm,tetragonal,0.005
Nb2VSe4,mp-1025195,C2/m,monoclinic,0.0036
V(CrS2)2,mp-1025224,C2/m,monoclinic,0.0005
Rb2MgCl4,mp-1025227,I4/mmm,tetragonal,5.0786
Ba2RuO4,mp-1025237,I4/mmm,tetragonal,0.0003
Ce2AlNO3,mp-1025275,I4mm,tetragonal,0.0013
Sm2AlNO3,mp-1025276,I4mm,tetragonal,1.2319
Pr2AlNO3,mp-1025277,I4mm,tetragonal,1.0341
V2CrTe4,mp-1025278,C2/m,monoclinic,0.001
Rb2ZnF4,mp-1025286,I4/mmm,tetragonal,4.7811
Mn(AlTe2)2,mp-1025315,I-42m,tetragonal,0.0007
V(CoSe2)2,mp-1025322,C2/m,monoclinic,0.0054
Tl2CdTe4,mp-1025337,I-42m,tetragonal,0.3293
GaAsPd5,mp-1025346,P4/mmm,tetragonal,0.0185
Ti2CoSe4,mp-1025347,C2/m,monoclinic,0.001
Sr2ZrO4,mp-1025349,I4/mmm,tetragonal,3.2675
Sr4Bi2O,mp-1025351,I4/mmm,tetragonal,0.9283
Er2Fe2Si2C,mp-1025354,C2/m,monoclinic,0.0021
Cd(AgI2)2,mp-1025377,I-42m,tetragonal,1.6107
Cr2FeTe4,mp-1025380,C2/m,monoclinic,0.0064
Th2Fe2Si2C,mp-1025382,C2/m,monoclinic,0.0031
TbO3,mp-1025387,P6_3/m,hexagonal,0.0065
NbTl3Se4,mp-1025396,I-43m,cubic,1.9855
LiNbSe2,mp-1025496,P6_3/mmc,hexagonal,0.6716
ZnCu2SnS4,mp-1025500,I-42m,tetragonal,0.1342
CeSi2Ru,mp-1025521,P2_1/m,monoclinic,0.0013
HoO3,mp-1025565,P6_3/m,hexagonal,0.0024
Hf2SN2,mp-1017567,P-3m1,hexagonal,1.1489
Ho3AlN,mp-1017577,Pm-3m,cubic,0.0306
HfBRh3,mp-1017578,Pm-3m,cubic,0.5367
Lu3AlN,mp-1017627,Pm-3m,cubic,0.0159
Mg(BeP)2,mp-1017628,P-3m1,hexagonal,0.801
ScBPd3,mp-1017631,Pm-3m,cubic,0.004
Ni3SnN,mp-1017632,Pm-3m,cubic,0.0311
TlN,mp-1017982,P6_3mc,hexagonal,0.2939
TiAg,mp-1017985,P4/nmm,tetragonal,0.0002
Li2MgSi,mp-1018009,F-43m,cubic,0.0012
Ti2InNi,mp-1018013,Fm-3m,cubic,0.0202
PbS,mp-1018019,P6_3/mmc,hexagonal,0.2782
NbCo3,mp-1018021,Pm-3m,cubic,0.003
LuAgO2,mp-1018025,R-3m,rhombohedral,2.3853
Sr2SO,mp-1018030,P4/mmm,tetragonal,2.2577
KInO2,mp-1018031,R-3m,rhombohedral,2.3528
SrCdO2,mp-1018032,P4/mmm,tetragonal,1.0011
AgRhO2,mp-1018033,R-3m,rhombohedral,0.7875
MgSe,mp-1018040,P6_3mc,hexagonal,2.8024
Ti2MnIn,mp-1018041,F-43m,cubic,0.01
Ti2InCo,mp-1018043,Fm-3m,cubic,0.0146
GaSb,mp-1018059,P6_3mc,hexagonal,0.162
ErH3,mp-1018063,Fm-3m,cubic,0.0397
ErFeC2,mp-1018064,Amm2,orthorhombic,0.0003
DyFeC2,mp-1018065,Amm2,orthorhombic,0.0056
CrFe2Si,mp-1018068,Fm-3m,cubic,0.0136
Ti2InFe,mp-1018070,F-43m,cubic,0.0013
HoGa,mp-1018073,Cmcm,orthorhombic,0.0049
Ga2BiAs,mp-1018076,P-4m2,tetragonal,0.021
CrGaP2,mp-1018079,P-4m2,tetragonal,0.0044
CrCo2Bi,mp-1018080,Fm-3m,cubic,0.0144
CrCdTe2,mp-1018083,P-4m2,tetragonal,0.0091
CoSnRh2,mp-1018085,I4/mmm,tetragonal,0.0022
CaZnSe2,mp-1018089,P-4m2,tetragonal,1.5563
CaGaSiH,mp-1018090,P3m1,hexagonal,0.0509
CaGaGeH,mp-1018093,P3m1,hexagonal,0.5678
Ba2NF,mp-1018096,R-3m,rhombohedral,1.0414
BaCaO2,mp-1018097,P4/mmm,tetragonal,2.1386
Ba2BrN,mp-1018098,R-3m,rhombohedral,1.1872
Ba2NCl,mp-1018099,R-3m,rhombohedral,1.1449
AlSb,mp-1018100,P6_3mc,hexagonal,1.058
TmSbPd,mp-1018118,F-43m,cubic,0.2176
TiPd2,mp-1018121,I4/mmm,tetragonal,0.0084
AlBi,mp-1018132,F-43m,cubic,0.0454
LiCdAs,mp-1018135,F-43m,cubic,0.695
BaC2,mp-1018141,R-3m,rhombohedral,1.4659
NbN,mp-1018142,F-43m,cubic,0.0078
MnSn,mp-1018145,Fm-3m,cubic,0.0318
Hf2Hg,mp-1018154,I4/mmm,tetragonal,0.0004
MnSn,mp-1018155,F-43m,cubic,0.0146
Ba2Zn,mp-1018178,I4/mmm,tetragonal,0.0022
Ca(BeAs)2,mp-1018630,P-3m1,hexagonal,0.8193
YbH3Pd,mp-1018646,Pm-3m,cubic,0.009
Ba2ClF3,mp-1018650,P-3m1,hexagonal,5.876
Ba2H3I,mp-1018651,P-3m1,hexagonal,2.2708
KCdSb,mp-1018652,P4/nmm,tetragonal,0.2405
BaMgPb,mp-1018653,P4/nmm,tetragonal,0.0022
Ca2H3Br,mp-1018656,P-3m1,hexagonal,1.8384
DyTe2,mp-1018679,P4/nmm,tetragonal,0.0084
HfGaCu,mp-1018714,P6_3/mmc,hexagonal,0.0055
HfN2,mp-1018716,P6_3/mmc,hexagonal,0.6413
HfTaNO3,mp-1018719,Pmm2,orthorhombic,1.9508
HfO2,mp-1018721,P4_2/nmc,tetragonal,4.7249
HgSe,mp-1018722,P3_221,hexagonal,0.8031
IrN2,mp-1018733,P6_3/mmc,hexagonal,0.001
KMgP,mp-1018737,P4/nmm,tetragonal,1.8719
Li3DySb2,mp-1018763,P-3m1,hexagonal,0.0377
Li3NdSb2,mp-1018769,P-3m1,hexagonal,0.0381
Li3PrBi2,mp-1018770,C2/m,monoclinic,0.0349
Li3PrSb2,mp-1018779,P-3m1,hexagonal,0.0328
Li3SmBi2,mp-1018780,P-3m1,hexagonal,0.0826
Li3SmSb2,mp-1018781,P-3m1,hexagonal,0.0186
Li3YBi2,mp-1018782,P-3m1,hexagonal,0.0626
LiFeAs,mp-1018785,P6_3/mmc,hexagonal,0.0067
LiO2,mp-1018789,Pnnm,orthorhombic,0.0015
TaO3,mp-1001011,Im-3,cubic,0.0276
Sc2ZnSe4,mp-1001016,Fd-3m,cubic,0.0873
Mg(ScSe2)2,mp-1001019,Fd-3m,cubic,1.1377
BeC2,mp-1001023,P4_2/mnm,tetragonal,1.89
Y2MgS4,mp-1001024,Fd-3m,cubic,1.8418
Mn3N2,mp-1001117,C2/m,monoclinic,0.0002
LuTlS2,mp-1001604,R-3m,rhombohedral,1.3347
LuTlSe2,mp-1001611,R-3m,rhombohedral,1.1337
LiZrSe2,mp-1001615,P-3m1,hexagonal,0.0165
LuCuS2,mp-1001780,P3m1,hexagonal,1.5369
LiScS2,mp-1001786,R-3m,rhombohedral,1.4767
MnGa,mp-1001836,P4/mmm,tetragonal,0.0003
HoP,mp-1001843,Pm-3m,cubic,0.009
HoN,mp-1001844,Pm-3m,cubic,0.0143
SnS2,mp-1002063,I-42d,tetragonal,1.5334
KNaICl,mp-1002081,P4/mmm,tetragonal,4.224
HfPd,mp-1002106,Pm-3m,cubic,0.0119
VCo,mp-1002109,Pm-3m,cubic,0.0018
HfC,mp-1002124,F-43m,cubic,0.0492
GeC,mp-1002164,F-43m,cubic,1.9273
TcB,mp-1002187,Fm-3m,cubic,0.0011
TcB,mp-1002188,P-6m2,hexagonal,0.0015
ErH,mp-1002221,Fm-3m,cubic,0.0266
UCd2O5,mp-1006058,C2/c,monoclinic,2.0952
BaO2,mp-1006878,Cmmm,orthorhombic,2.0697
BiB,mp-1006880,F-43m,cubic,0.1153
KNdS2,mp-1006885,R-3m,rhombohedral,2.297
KYS2,mp-1006888,R-3m,rhombohedral,2.4051
KSmSe2,mp-1006891,R-3m,rhombohedral,1.8594
KNaH2,mp-1007637,P4/mmm,tetragonal,3.1109
InSb,mp-1007661,Cmc2_1,orthorhombic,0.2561
HoTlTe2,mp-1007663,R-3m,rhombohedral,0.6852
HoTlS2,mp-1007665,R-3m,rhombohedral,1.5443
HfPt,mp-1007691,Cmcm,orthorhombic,0.0009
HfAu,mp-1007755,P4/nmm,tetragonal,0.0046
TlAs,mp-1007770,F-43m,cubic,0.2307
TlP,mp-1007776,F-43m,cubic,0.0333
TlN,mp-1007778,F-43m,cubic,0.0349
GaBN2,mp-1007823,P-4m2,tetragonal,3.3527
FeNi3,mp-1007855,I4/mmm,tetragonal,0.0021
ErTlTe2,mp-1007907,R-3m,rhombohedral,0.7044
DyTlTe2,mp-1007908,R-3m,rhombohedral,0.6729
DyAu,mp-1007918,Cmcm,orthorhombic,0.0004
CuI,mp-1007922,Cmcm,orthorhombic,0.942
CrNi3,mp-1007974,Pm-3m,cubic,0.0145
CrH,mp-1007992,P6_3/mmc,hexagonal,0.0003
CaSe,mp-1008223,F-43m,cubic,3.3013
CrCo2Si,mp-1008224,Fm-3m,cubic,0.01
CrFe2Sn,mp-1008226,Fm-3m,cubic,0.0009
CrCo3,mp-1008280,Pm-3m,cubic,0.0004
Cr3Ni,mp-1008284,I4/mmm,tetragonal,0.0019
CdSiP2,mp-1008472,Fm-3m,cubic,0.0011
BiPd,mp-1008488,P6_3/mmc,hexagonal,0.0002
BiI3,mp-1008490,Fm-3m,cubic,0.0393
BrCl,mp-1008492,Cmcm,orthorhombic,1.661
BaO,mp-1008500,P6_3/mmc,hexagonal,2.3807
BC2N,mp-1008523,P-4m2,tetragonal,1.9071
BeSe,mp-1008524,P6_3/mmc,hexagonal,0.9741
B2AsP,mp-1008528,P-4m2,tetragonal,1.2878
Al3V,mp-1008554,Pm-3m,cubic,0.0028
AlGaN2,mp-1008556,P-4m2,tetragonal,2.9463
AlBN2,mp-1008557,P-4m2,tetragonal,3.3071
BP,mp-1008559,P6_3mc,hexagonal,1.3771
TmTlTe2,mp-1008561,R-3m,rhombohedral,0.7113
VCoTe,mp-1008631,F-43m,cubic,0.0045
V2C,mp-1008632,P-3m1,hexagonal,0.0035
TiO2,mp-1008677,Fm-3m,cubic,1.1878
Ti2Sn,mp-1008688,F-43m,cubic,0.0067
SrC2,mp-1008776,R-3m,rhombohedral,1.8606
MgTe,mp-1008786,Fm-3m,cubic,0.3716
RbCuO,mp-1008807,F-43m,cubic,0.5721
PtN2,mp-1008809,P-6m2,hexagonal,0.0109
RbAgO,mp-1008813,F-43m,cubic,0.642
PdN2,mp-1008820,Fm-3m,cubic,0.0136
OsC2,mp-1008835,P-6m2,hexagonal,0.034
NdBiPd,mp-1008858,F-43m,cubic,0.044
NaAgO,mp-1008866,F-43m,cubic,0.2391
MnFeTe,mp-1008872,F-43m,cubic,0.007
MnCoTe,mp-1008874,F-43m,cubic,0.0181
MgH2,mp-1008901,Fm-3m,cubic,0.0368
LuCd2,mp-1008910,P-3m1,hexagonal,0.005
AgC,mp-1008912,F-43m,cubic,0.0058
CuN,mp-1008922,Fm-3m,cubic,0.005
CrTe,mp-1008926,F-43m,cubic,0.0135
LiCdAs,mp-1009006,F-43m,cubic,0.0386
LiF,mp-1009009,Pm-3m,cubic,8.1063
IrN,mp-1009015,P-6m2,hexagonal,0.0005
HoSb,mp-1009017,Pm-3m,cubic,0.0025
MgSnAs2,mp-1009082,I-42d,tetragonal,0.6578
MgSnP2,mp-1009083,I-42d,tetragonal,1.1499
BeSnAs2,mp-1009084,I-42d,tetragonal,0.6732
BeGeAs2,mp-1009088,I-42d,tetragonal,0.6768
MgO,mp-1009129,P-6m2,hexagonal,3.647
MnSb,mp-1009207,Pm-3m,cubic,0.0465
MoC,mp-1009218,F-43m,cubic,0.0016
HfN2,mp-1009219,P-6m2,hexagonal,0.005
NaH,mp-1009220,Pm-3m,cubic,1.3198
NiN,mp-1009483,Pm-3m,cubic,0.0035
RbTe,mp-1009491,F-43m,cubic,2.9818
PdC,mp-1009533,Fm-3m,cubic,0.0302
OsC,mp-1009540,F-43m,cubic,0.0044
DyBiPd,mp-1009543,F-43m,cubic,0.032
PbS,mp-1009551,P-6m2,hexagonal,0.2587
CrO2,mp-1009555,Fm-3m,cubic,0.0107
CrCoTe,mp-1009593,F-43m,cubic,0.0024
PrN,mp-1009639,F-43m,cubic,1.765
PrN,mp-1009640,Pm-3m,cubic,0.0569
PtC,mp-1009648,P-6m2,hexagonal,0.0034
RbSb,mp-1009650,F-43m,cubic,2.2965
RhC,mp-1009652,Fm-3m,cubic,0.0031
CaC2,mp-1009653,R-3m,rhombohedral,1.7322
RhC,mp-1009696,F-43m,cubic,0.0078
Ca2Sn,mp-1009730,Fm-3m,cubic,0.2085
RhN,mp-1009734,F-43m,cubic,0.0035
ScP,mp-1009746,F-43m,cubic,1.5809
ScSn,mp-1009747,F-43m,cubic,0.7453
ScN,mp-1009750,F-43m,cubic,2.5756
Ca2Ge,mp-1009755,Fm-3m,cubic,0.0693
Ca2Pb,mp-1009756,Fm-3m,cubic,0.206
RuN,mp-1009770,F-43m,cubic,0.0065
RuC,mp-1009787,Fm-3m,cubic,0.0141
RuC,mp-1009792,F-43m,cubic,0.6609
CN2,mp-1009818,I-4m2,tetragonal,0.0789
SrO,mp-1009819,Pm-3m,cubic,2.7776
SnC,mp-1009820,F-43m,cubic,0.748
SnC,mp-1009822,Fm-3m,cubic,0.0096
BeB2,mp-1009823,P6/mmm,hexagonal,0.0019
BaSi2,mp-1009827,I4/mmm,tetragonal,0.0219
BaSiC,mp-1009828,I4mm,tetragonal,0.2007
Al2Ru,mp-1009834,I4/mmm,tetragonal,0.0031
ZrN,mp-1009838,P-6m2,hexagonal,0.027
ZrC,mp-1009894,F-43m,cubic,0.0572
CrCo,mp-1010071,Pm-3m,cubic,0.0002
BaBrCl,mp-1012551,Pnma,orthorhombic,4.4832
Ca3N2,mp-1013524,Pm-3m,cubic,0.4464
BeGeP2,mp-1013527,I-42d,tetragonal,0.8728
Ba3N2,mp-1013528,Pm-3m,cubic,0.0595
Sr3N2,mp-1013529,Pm-3m,cubic,0.5113
Sr3BiP,mp-1013530,Pm-3m,cubic,0.0999
Sr3AsP,mp-1013532,Pm-3m,cubic,0.5487
Ba3PN,mp-1013533,Pm-3m,cubic,0.0778
Sr3SbN,mp-1013534,Pm-3m,cubic,0.0512
Sr3SbP,mp-1013535,Pm-3m,cubic,0.4479
Sr3PN,mp-1013536,Pm-3m,cubic,0.1282
Sr3AsN,mp-1013537,Pm-3m,cubic,0.1327
Sr3SbAs,mp-1013541,Pm-3m,cubic,0.4208
Ca3BiN,mp-1013542,Pm-3m,cubic,0.225
Ca3SbAs,mp-1013544,Pm-3m,cubic,0.1039
Ca3BiAs,mp-1013545,Pm-3m,cubic,0.4481
Ca3Sb2,mp-1013546,Pm-3m,cubic,0.4187
Ca3P2,mp-1013547,Pm-3m,cubic,0.4069
Ca3SbN,mp-1013548,Pm-3m,cubic,0.1108
Ca3SbP,mp-1013550,Pm-3m,cubic,0.7079
Ba3P2,mp-1013551,Pm-3m,cubic,0.0396
Sr3P2,mp-1013552,Pm-3m,cubic,0.4841
Sr3AsP,mp-1013553,Pm-3m,cubic,0.5266
Sr3PN,mp-1013554,Pm-3m,cubic,0.1742
Sr3AsN,mp-1013555,Pm-3m,cubic,0.1714
Ca3BiP,mp-1013558,Pm-3m,cubic,0.3361
Sr3As2,mp-1013559,Pm-3m,cubic,0.5064
Sr3SbAs,mp-1013561,Pm-3m,cubic,0.4167
Ba3SbAs,mp-1013562,Pm-3m,cubic,0.0461
Ba3BiAs,mp-1013563,Pm-3m,cubic,0.0617
Ba3Sb2,mp-1013582,Pm-3m,cubic,0.0316
Sr3Sb2,mp-1013583,Pm-3m,cubic,0.5169
Ba3BiSb,mp-1013584,Pm-3m,cubic,0.0991
Sr3BiSb,mp-1013585,Pm-3m,cubic,0.4084
Ba3AsP,mp-1013586,Pm-3m,cubic,0.3544
Sr3Bi2,mp-1013587,Pm-3m,cubic,0.0994
Sr3SbP,mp-1013588,Pm-3m,cubic,0.2554
Ca3AsP,mp-1013642,Pm-3m,cubic,0.4531
Sr3BiP,mp-1013643,Pm-3m,cubic,0.5018
Ba3BiP,mp-1013691,Pm-3m,cubic,0.0771
Ca3BiAs,mp-1013703,Pm-3m,cubic,0.4432
Sr3BiAs,mp-1013705,Pm-3m,cubic,0.0957
Sr3BiSb,mp-1013706,Pm-3m,cubic,0.4999
Ba3PN,mp-1013707,Pm-3m,cubic,0.0402
Ba3AsN,mp-1013709,Pm-3m,cubic,0.0817
Ba3AsP,mp-1013711,Pm-3m,cubic,0.0454
Ba3SbP,mp-1013712,Pm-3m,cubic,0.0404
Ba3BiP,mp-1013713,Pm-3m,cubic,0.104
Ba3SbAs,mp-1013714,Pm-3m,cubic,0.0729
Ba3BiAs,mp-1013716,Pm-3m,cubic,0.0379
Ba3BiSb,mp-1013719,Pm-3m,cubic,0.036
Ca3BiSb,mp-1013733,Pm-3m,cubic,0.4174
Ba3AsN,mp-1013734,Pm-3m,cubic,0.1147
Ca3Bi2,mp-1013735,Pm-3m,cubic,0.0554
Ba3Bi2,mp-1013736,Pm-3m,cubic,0.1191
Ba3SbP,mp-1013737,Pm-3m,cubic,0.043
ZrB,mp-1014138,P-6m2,hexagonal,0.0031
HfZn,mp-1014219,Pm-3m,cubic,0.0199
TiZn,mp-1014230,Pm-3m,cubic,0.006
ZrZnN2,mp-1014244,P3m1,hexagonal,2.1562
HfZnN2,mp-1014251,P3m1,hexagonal,2.3609
CrN2,mp-1014366,P4_2/mnm,tetragonal,0.0158
Cr3N4,mp-1014379,Fd-3m,cubic,0.0285
Cr3N2,mp-1014454,P-3m1,hexagonal,0.0001
CrN2,mp-1016069,P1,triclinic,0.0076
TiZnN2,mp-1016108,Pna2_1,orthorhombic,2.389
MgSiAs2,mp-1016197,I-42d,tetragonal,1.3662
MgGeAs2,mp-1016200,I-42d,tetragonal,0.4362
MgSnO3,mp-1016820,Pm-3m,cubic,1.1756
BaSiO3,mp-1016821,Pm-3m,cubic,1.476
HfMgO3,mp-1016825,Pm-3m,cubic,1.1176
MgGeO3,mp-1016827,Pm-3m,cubic,1.1348
MgTiO3,mp-1016830,Pm-3m,cubic,1.9343
SnHgO3,mp-1016837,Pm-3m,cubic,0.1209
HfHgO3,mp-1016841,Pm-3m,cubic,0.1965
TiHgO3,mp-1016842,Pm-3m,cubic,0.1128
TiCdO3,mp-1016846,Pm-3m,cubic,0.639
MnCdO3,mp-1016854,Pm-3m,cubic,0.0036
CaHfO3,mp-1016873,Pm-3m,cubic,3.784
SiHgO3,mp-1016874,Pm-3m,cubic,0.141
ZnSiO3,mp-1016876,Pm-3m,cubic,0.4024
CdSiO3,mp-1016879,Pm-3m,cubic,0.6614
ZrZnO3,mp-1016883,Pm-3m,cubic,0.1556
ZnSnO3,mp-1016902,Pm-3m,cubic,0.1473
CdGeO3,mp-1016903,Pm-3m,cubic,0.3683
MgSiO3,mp-1016928,Pm-3m,cubic,2.9213
ZnGeO3,mp-1016930,Pm-3m,cubic,0.2817
SrGeO3,mp-1016999,Pm-3m,cubic,0.6451
MgZrO3,mp-1017000,Pm-3m,cubic,1.0031
SrSiO3,mp-1017439,Pm-3m,cubic,3.0362
TmAu,mp-1017507,Cmcm,orthorhombic,0.0013
LuTlTe2,mp-1017508,R-3m,rhombohedral,0.7124
MgTe,mp-1017510,P6_3/mmc,hexagonal,1.1207
MgSiN2,mp-1017514,R-3m,rhombohedral,4.4319
VCo3,mp-1017529,Pm-3m,cubic,0.004
VH,mp-1017530,P6_3/mmc,hexagonal,0.0009
VPt,mp-1017531,Pmma,orthorhombic,0.0031
YN,mp-1017533,P6_3/mmc,hexagonal,0.1033
ZnCdSe2,mp-1017534,P-4m2,tetragonal,0.6374
ZnO,mp-1017539,P6_3mc,hexagonal,0.8592
ZrN,mp-1017546,P6_3/mmc,hexagonal,0.0012
Ca(BH)2,mp-1017549,P-3m1,hexagonal,0.3311
Be3N2,mp-1017550,P-3m1,hexagonal,4.6289
Bi2O3,mp-1017551,P-4m2,tetragonal,0.1977
Bi2O3,mp-1017552,P-3m1,hexagonal,1.4542
TiPN3,mp-989613,Amm2,orthorhombic,0.042
CaWN3,mp-989616,C2/m,monoclinic,0.0549
YWN3,mp-989617,Ama2,orthorhombic,1.5433
SrReN3,mp-989623,C2/c,monoclinic,2.0442
SrWN3,mp-989625,P1,triclinic,1.1255
CaMoN3,mp-989635,C2/m,monoclinic,1.0158
BaWN3,mp-989636,C2/m,monoclinic,1.0977
CaTcN3,mp-989638,C2/m,monoclinic,0.0225
YWN3,mp-989645,P2_1/m,monoclinic,1.3449
VCu3Te4,mp-991652,P-43m,cubic,0.0306
NbCu3Te4,mp-991676,P-43m,cubic,1.1204
PbBrCl,mp-995147,P4/nmm,tetragonal,3.3766
NdB4,mp-995182,Immm,orthorhombic,0.0004
KCaSiHO4,mp-995190,P2_1,monoclinic,4.6219
RbBaSiHO4,mp-995192,P2_1,monoclinic,4.1071
KBaSiHO4,mp-995194,P2_1,monoclinic,4.2254
H2CO,mp-995206,P2/c,monoclinic,2.1326
TiReN3,mp-996940,R3c,rhombohedral,0.0043
LiAuO2,mp-996959,I4_122,tetragonal,1.7037
LiAgO2,mp-996962,P2_1/c,monoclinic,0.7097
CdAgO2,mp-996963,C2/m,monoclinic,0.0038
AgBiO2,mp-996965,P6_3/mmc,hexagonal,0.8057
KAgO2,mp-996966,Pmmm,orthorhombic,0.6753
AgBiO2,mp-996970,C2/m,monoclinic,1.21
CuHgO2,mp-996973,C2/m,monoclinic,0.0044
CuAgO2,mp-996975,Pmmm,orthorhombic,0.0012
AgAuO2,mp-996977,I4_122,tetragonal,0.007
AgAuO2,mp-996980,Pmna,orthorhombic,0.0223
AgBiO2,mp-996982,R-3m,rhombohedral,0.994
AgAuO2,mp-996983,P2_1/c,monoclinic,0.7186
HAuO2,mp-996985,Pmn2_1,orthorhombic,1.3392
LiAgO2,mp-996988,Pmmm,orthorhombic,0.0217
LiAgO2,mp-996997,Pmna,orthorhombic,0.7617
HAuO2,mp-996998,P-1,triclinic,0.8322
KAuO2,mp-997002,Cmcm,orthorhombic,1.4887
AgPtO2,mp-997006,P2/m,monoclinic,0.0563
AgPtO2,mp-997007,C2/m,monoclinic,0.0597
BaAuO2,mp-997009,C2/m,monoclinic,1.236
TlAgO2,mp-997010,P6_3/mmc,hexagonal,0.0829
AgPbO2,mp-997019,C2/m,monoclinic,0.0228
AgPbO2,mp-997021,P2/m,monoclinic,0.0152
AgAsO2,mp-997022,C2,monoclinic,2.3303
MgCuO2,mp-997031,Cmme,orthorhombic,0.0045
CdAuO2,mp-997036,P-1,triclinic,1.0334
NaCuO2,mp-997041,Cmcm,orthorhombic,0.0998
TlCuO2,mp-997042,P2_1/m,monoclinic,0.0051
PbAuO2,mp-997043,C2/m,monoclinic,0.025
AgBrO2,mp-997048,C2/c,monoclinic,0.0361
PdAuO2,mp-997051,R-3m,rhombohedral,0.003
CuBiO2,mp-997054,P2_1/m,monoclinic,1.0008
CuBiO2,mp-997055,Immm,orthorhombic,0.7908
BiAuO2,mp-997082,P2_1/m,monoclinic,1.0965
RbAgO2,mp-997084,Pmmm,orthorhombic,0.8047
NaAuO2,mp-997089,C2/m,monoclinic,1.3507
SrAuO2,mp-997094,C2/m,monoclinic,1.6056
PdAuO2,mp-997099,P6_3/mmc,hexagonal,0.0265
KAgO2,mp-997102,C2/c,monoclinic,1.2329
AgRhO2,mp-997106,P6_3/mmc,hexagonal,0.2578
CuO2F,mp-997107,Imm2,orthorhombic,0.0628
RbAgO2,mp-997108,C2/c,monoclinic,1.2487
PbAuO2,mp-997109,P-1,triclinic,0.105
VCuO2,mp-997181,R-3m,rhombohedral,0.0058
H6CIN,mp-997571,P2_1/m,monoclinic,4.1528
BSb,mp-997618,F-43m,cubic,0.9452
CaTlF3,mp-998150,Amm2,orthorhombic,4.6333
CaTlCl3,mp-998151,Cm,monoclinic,4.4208
TlGeBr3,mp-998153,Cm,monoclinic,1.0118
RbSrCl3,mp-998155,Cm,monoclinic,4.7881
RbSnCl3,mp-998156,Cm,monoclinic,1.5007
TlFeF3,mp-998159,Pm-3m,cubic,0.0386
TlCoF3,mp-998160,Pm-3m,cubic,0.0166
RbPbBr3,mp-998176,Cm,monoclinic,2.0622
RbSnF3,mp-998193,P1,triclinic,3.7219
RbCaCl3,mp-998197,P1,triclinic,5.2221
KGeCl3,mp-998231,Cm,monoclinic,1.7594
RbSeBr3,mp-998299,P2_1/m,monoclinic,1.6094
RbCaCl3,mp-998324,R3c,rhombohedral,5.4205
RbCaI3,mp-998325,Cm,monoclinic,3.6028
BaZrSe3,mp-998350,P1,triclinic,0.037
BaHfS3,mp-998352,P1,triclinic,0.7357
MgAgF3,mp-998358,Pm-3m,cubic,2.121
KCrCl3,mp-998397,R3c,rhombohedral,0.0073
InSnBr3,mp-998398,P1,triclinic,1.305
KGeBr3,mp-998412,Cm,monoclinic,1.4113
CuAgF3,mp-998414,Pm-3m,cubic,0.0604
MgAgF3,mp-998418,R-3c,rhombohedral,2.1845
BaHfS3,mp-998419,Pnma,orthorhombic,0.8625
KCaCl3,mp-998421,R-3,rhombohedral,5.6824
InPbCl3,mp-998535,Cm,monoclinic,3.0038
RbCaBr3,mp-998536,Pnma,orthorhombic,4.4788
ZnAgF3,mp-998537,R-3,rhombohedral,1.264
BaHfO3,mp-998552,P4mm,tetragonal,3.6828
InSnBr3,mp-998555,R3c,rhombohedral,2.3122
InSnCl3,mp-998567,R-3,rhombohedral,2.8234
KAgBr3,mp-998568,Cm,monoclinic,0.0154
InGeCl3,mp-998569,R3c,rhombohedral,2.8397
RbCaI3,mp-998592,Pnma,orthorhombic,3.4642
KCaBr3,mp-998599,P2_1/m,monoclinic,4.5331
KCaCl3,mp-998601,Cm,monoclinic,4.9739
RbPbCl3,mp-998605,Cm,monoclinic,2.5259
TlAgCl3,mp-998610,P1,triclinic,0.0134
RbSnCl3,mp-998611,R3c,rhombohedral,2.6281
KGeBr3,mp-998612,P2_1/m,monoclinic,2.9135
CaTlF3,mp-998615,R3c,rhombohedral,4.5956
RbSnF3,mp-998620,R-3,rhombohedral,4.1113
TlCdF3,mp-998623,P1,triclinic,3.9918
TlHgF3,mp-998710,P1,triclinic,2.1312
TlGeF3,mp-998711,P2_1/m,monoclinic,3.4359
TlGeF3,mp-998712,P1,triclinic,3.2417
TlInCl3,mp-998713,P1,triclinic,2.1379
MgTlF3,mp-998739,Amm2,orthorhombic,4.8017
TlGeCl3,mp-998743,P2_1/m,monoclinic,3.2683
TlZnF3,mp-998745,Pm,monoclinic,4.3832
KCaBr3,mp-998749,Cm,monoclinic,4.164
RbSrCl3,mp-998755,R-3,rhombohedral,5.3129
RbSnBr3,mp-998778,Pnma,orthorhombic,2.4315
CaTlCl3,mp-998787,P2_1/m,monoclinic,4.1593
YC,mp-998894,F-43m,cubic,0.045
YN,mp-998899,P-6m2,hexagonal,0.0603
KO3,mp-998913,Imm2,orthorhombic,3.5277
K2O,mp-998914,C2/m,monoclinic,2.0017
K2O,mp-998915,Pnnm,orthorhombic,1.9916
KO2,mp-998916,Pa-3,cubic,4.4385
K2O2,mp-998917,P-62m,hexagonal,2.3048
K2O,mp-998929,P1,triclinic,2.3401
TiGaFeCo,mp-998964,F-43m,cubic,0.063
TiFeCoSi,mp-998971,F-43m,cubic,0.0163
TiAlFeCo,mp-998980,F-43m,cubic,0.0363
TiAl3,mp-998981,Pm-3m,cubic,0.0007
Ti3Sn,mp-998982,Fm-3m,cubic,0.0071
Ti3Si,mp-998986,Fm-3m,cubic,0.019
Ti2MnSi,mp-999047,F-43m,cubic,0.0121
Ti2MnAl,mp-999052,F-43m,cubic,0.0124
Ti2AlCr,mp-999096,F-43m,cubic,0.0868
TbTlS2,mp-999119,R-3m,rhombohedral,1.6441
TbTlTe2,mp-999121,R-3m,rhombohedral,0.6626
TbH3,mp-999123,Fm-3m,cubic,0.0592
TbPd,mp-999124,Cmcm,orthorhombic,0.0004
NaTbS2,mp-999126,R-3m,rhombohedral,2.308
NaTbSe2,mp-999127,R-3m,rhombohedral,1.8621
KTbS2,mp-999129,R-3m,rhombohedral,2.369
SmTlTe2,mp-999132,R-3m,rhombohedral,0.6485
TaPd,mp-999133,P4/nmm,tetragonal,0.0002
TaCuN2,mp-999135,R-3m,rhombohedral,0.0399
TaInSe2,mp-999136,P-6m2,hexagonal,0.0099
SmTlSe2,mp-999137,R-3m,rhombohedral,1.2256
SmTlS2,mp-999138,R-3m,rhombohedral,1.9913
SmNiC2,mp-999144,Amm2,orthorhombic,0.0002
SmNi,mp-999145,Cmcm,orthorhombic,0.0016