formula,mpid,space group,bravais lattice,gap opt
SmFeC2,mp-999178,Amm2,orthorhombic,0.0058
SmCoC2,mp-999190,Amm2,orthorhombic,0.0069
SiNi,mp-999192,Pmmn,orthorhombic,0.0017
Sc2MnC,mp-999257,Fm-3m,cubic,0.0037
Sc2MnGe,mp-999258,Fm-3m,cubic,0.0312
RbYS2,mp-999265,R-3m,rhombohedral,2.3873
RbSmTe2,mp-999269,R-3m,rhombohedral,1.2913
RbNaH2,mp-999274,P4/mmm,tetragonal,2.5783
PrTlTe2,mp-999288,R-3m,rhombohedral,0.6824
PrTlSe2,mp-999289,R-3m,rhombohedral,1.2269
PdN,mp-999293,P4_2/mmc,tetragonal,0.0018
Pd3N,mp-999294,Pm-3m,cubic,0.0081
PrN,mp-999295,P4/nmm,tetragonal,1.0787
PdN,mp-999303,P6_3/mmc,hexagonal,0.0023
PrAu,mp-999306,Cmcm,orthorhombic,0.0036
NdTlTe2,mp-999319,R-3m,rhombohedral,0.6647
NdAu,mp-999338,Cmcm,orthorhombic,0.0004
NbCr3,mp-999390,Fm-3m,cubic,0.0119
Nb3Cr,mp-999439,Fm-3m,cubic,0.0041
Nb3Cr,mp-999441,I4/mmm,tetragonal,0.0003
NaSmTe2,mp-999447,R-3m,rhombohedral,1.1732
NaYSe2,mp-999448,R-3m,rhombohedral,1.9225
NaSmSe2,mp-999450,R-3m,rhombohedral,1.8007
NaVS2,mp-999454,P-3m1,hexagonal,0.017
NaSmS2,mp-999455,R-3m,rhombohedral,2.2425
NaScS2,mp-999460,R-3m,rhombohedral,1.6925
NaPrSe2,mp-999461,R-3m,rhombohedral,1.7801
NaNdS2,mp-999470,R-3m,rhombohedral,2.2292
NaNdSe2,mp-999471,R-3m,rhombohedral,1.7886
NaLaSe2,mp-999472,R-3m,rhombohedral,2.0833
NaHoSe2,mp-999474,R-3m,rhombohedral,1.9334
NaDySe2,mp-999488,R-3m,rhombohedral,1.9133
NaDyS2,mp-999490,R-3m,rhombohedral,2.3267
Na3N,mp-999495,Fm-3m,cubic,1.0832
Na3N,mp-999496,P6/mmm,hexagonal,0.3635
MnSiNi2,mp-999508,Fm-3m,cubic,0.009
MnCo3,mp-999543,Pm-3m,cubic,0.0005
WN2,mp-999549,P-6m2,hexagonal,1.7579
MnGaFeCo,mp-999552,F-43m,cubic,0.002
Mn2CuSb,mp-999566,F-43m,cubic,0.0019
Mn2SiRu,mp-999576,F-43m,cubic,0.0022
Mg3Mn,mp-978285,Fm-3m,cubic,0.01
Mg3Mo,mp-978287,Pm-3m,cubic,0.0069
SiPbO3,mp-978489,Pm-3m,cubic,2.0364
Si2TcOs,mp-978500,Fm-3m,cubic,0.0178
SmGaO3,mp-978504,Pm-3m,cubic,2.8989
SmLuRu2,mp-978505,Fm-3m,cubic,0.0044
Si3Os,mp-978508,I4/mmm,tetragonal,0.0011
SmTmMg2,mp-978512,Fm-3m,cubic,0.0107
Sc2ZnCu,mp-978523,Fm-3m,cubic,0.0011
Si3Ag,mp-978524,I4/mmm,tetragonal,0.0008
SmLuTl2,mp-978544,Fm-3m,cubic,0.0055
SmEr3,mp-978548,I4/mmm,tetragonal,0.0021
SiRh3,mp-978552,I4/mmm,tetragonal,0.0007
SmRe3,mp-978554,Fm-3m,cubic,0.0018
Sm2CdIr,mp-978555,Fm-3m,cubic,0.0012
SmFeP,mp-978695,P4/nmm,tetragonal,0.0004
Sm3Hg,mp-978795,I4/mmm,tetragonal,0.0007
Sm2TlHg,mp-978807,Fm-3m,cubic,0.0106
SrCa3O4,mp-978844,Pm-3m,cubic,3.3796
SnI2,mp-978846,P4_2/mnm,tetragonal,1.2788
SrGaGeH,mp-978847,P3m1,hexagonal,0.2415
Sm3Mg,mp-978849,I4/mmm,tetragonal,0.0046
SrGaSnH,mp-978852,P3m1,hexagonal,0.0405
Sm2InAg,mp-978891,Fm-3m,cubic,0.0085
TbTlAg2,mp-978907,Fm-3m,cubic,0.0307
TbZr,mp-978918,P-6m2,hexagonal,0.0093
Tb2Be2O5,mp-978920,P4/mmm,tetragonal,2.5404
Sm3Th,mp-978939,I4/mmm,tetragonal,0.0025
Sm3Ho,mp-978949,Pm-3m,cubic,0.0012
SnPbO3,mp-978952,Pm-3m,cubic,1.2216
Sm3Tm,mp-978960,I4/mmm,tetragonal,0.0043
Ti3O2,mp-978968,R-3c,rhombohedral,0.0026
TlAu3,mp-978969,I4/mmm,tetragonal,0.001
TbYTl2,mp-978975,Fm-3m,cubic,0.0122
SnBr2,mp-978985,P4_2/mnm,tetragonal,1.8209
Tm2BeOs,mp-979042,Fm-3m,cubic,0.0162
Tm2CuPd,mp-979045,Fm-3m,cubic,0.0013
TmMg2Sc,mp-979073,Fm-3m,cubic,0.0064
SrGaSiH,mp-979137,P3m1,hexagonal,0.5721
Tm2AgHg,mp-979176,Fm-3m,cubic,0.0456
TiPd,mp-979261,P2_1/m,monoclinic,0.0003
Tl3F,mp-979262,I4/mmm,tetragonal,0.0024
V3Cu,mp-979283,Fm-3m,cubic,0.0139
WSCl4,mp-979414,P-1,triclinic,1.6973
YErZn2,mp-979421,Fm-3m,cubic,0.0151
Sr3SiO5,mp-979932,I4/mcm,tetragonal,4.2177
RbYb3,mp-979936,Pm-3m,cubic,0.0043
Yb3W,mp-979939,Fm-3m,cubic,0.0025
Yb3Mg,mp-979956,Pm-3m,cubic,0.0035
SrAlGeH,mp-980057,P3m1,hexagonal,0.8852
TbAg3,mp-980060,I4/mmm,tetragonal,0.0018
TiPd,mp-980094,Pmma,orthorhombic,0.0
NaYb3,mp-980189,Fm-3m,cubic,0.0023
YbOs3,mp-980192,I4/mmm,tetragonal,0.0015
Ti2H4Pd,mp-980193,I4/mmm,tetragonal,0.0039
YbTm3,mp-980196,I4/mmm,tetragonal,0.0044
TmHfIr2,mp-980201,Fm-3m,cubic,0.0112
TmLuCo2,mp-980669,Fm-3m,cubic,0.0039
Sr3Cr,mp-980946,Pm-3m,cubic,0.0036
SrCaIn2,mp-980948,Fm-3m,cubic,0.0236
Sr3CdO4,mp-981103,Pm-3m,cubic,0.6463
TmMg2,mp-981212,P-3m1,hexagonal,0.0004
UCr3,mp-981233,Fm-3m,cubic,0.0006
V2ReRu,mp-981365,Fm-3m,cubic,0.0226
Sr3Yb,mp-981378,Fm-3m,cubic,0.0023
Zn3CdS4,mp-981379,P-43m,cubic,1.7168
PrHo3,mp-981546,Pm-3m,cubic,0.0042
PrH3,mp-981547,I4/mmm,tetragonal,0.0209
Ge2O3,mp-982048,Pm-3m,cubic,0.8672
PrHo3,mp-982065,I4/mmm,tetragonal,0.0017
NaCu3,mp-982381,I4/mmm,tetragonal,0.0029
TbH3,mp-982384,P-3c1,hexagonal,0.0502
TbSc,mp-982596,P-6m2,hexagonal,0.003
Na3Mg,mp-982637,I4/mmm,tetragonal,0.001
K3Ho,mp-982663,Fm-3m,cubic,0.0064
Na3Pt,mp-982871,I4/mmm,tetragonal,0.0105
Na3DyCl6,mp-982980,P2_1/c,monoclinic,5.3593
HfH3,mp-982982,I4/mmm,tetragonal,0.0009
HfMgAu2,mp-983123,Fm-3m,cubic,0.0451
KH4O2F,mp-983327,Pmc2_1,orthorhombic,5.3323
HfAlFe2,mp-983358,Fm-3m,cubic,0.0205
Sm3Si,mp-983479,P6_3/mmc,hexagonal,0.0047
Ca2AgBi,mp-983598,Fm-3m,cubic,0.0158
Ca3SnH2,mp-984605,Cmcm,orthorhombic,0.0779
CaBO3,mp-984628,Pm-3m,cubic,0.0375
ErRu3,mp-984705,I4/mmm,tetragonal,0.0017
BAs,mp-984718,P6_3mc,hexagonal,1.361
DyAlO3,mp-984723,Pm-3m,cubic,3.1657
BC,mp-984728,P6_3mc,hexagonal,0.0048
BaSr3O4,mp-984729,Pm-3m,cubic,2.5091
Ca(BH4)2,mp-984766,P4_2,tetragonal,5.1063
Dy(Al2Cr)4,mp-985207,I4/mmm,tetragonal,0.0011
Al(HO)3,mp-985293,P2_12_12_1,orthorhombic,6.1648
Ag3N,mp-985299,I4/mmm,tetragonal,0.0054
Na3PS4,mp-985584,I-43m,cubic,2.5076
Na3BrO,mp-985586,Pm-3m,cubic,2.1309
ScOF,mp-989178,P4/nmm,tetragonal,4.3423
SbOF,mp-989191,P4/nmm,tetragonal,1.9542
SnClF,mp-989192,P4/nmm,tetragonal,2.9192
SnBrF,mp-989193,P4/nmm,tetragonal,2.2806
ScClO,mp-989195,P4/nmm,tetragonal,3.824
GeClF,mp-989197,P4/nmm,tetragonal,2.7918
Rb2NaGaF6,mp-989400,Fm-3m,cubic,6.3265
YWN3,mp-989407,Pmc2_1,orthorhombic,1.6472
Rb2TlInF6,mp-989532,Fm-3m,cubic,3.6738
NaTl2InF6,mp-989533,Fm-3m,cubic,4.5872
Rb2NaSbCl6,mp-989545,Fm-3m,cubic,3.1464
Rb2NaInCl6,mp-989547,Fm-3m,cubic,3.0928
Rb2NaTlF6,mp-989548,Fm-3m,cubic,3.6825
Rb2TlInCl6,mp-989550,Fm-3m,cubic,2.2692
Tl2InGaF6,mp-989555,Fm-3m,cubic,2.4916
Rb2NaInF6,mp-989578,Fm-3m,cubic,5.5871
LaWN3,mp-989601,R3m,rhombohedral,0.8182
YWN3,mp-989609,Cmcm,orthorhombic,1.232
Rb3Si,mp-974572,P6_3/mmc,hexagonal,0.0019
Rb2MgH4,mp-974586,Cmcm,orthorhombic,3.1404
HgF2,mp-974603,P4_2/mnm,tetragonal,1.4133
K2H4Pt,mp-974713,P4_2/mnm,tetragonal,3.3082
Rb3Y,mp-974732,Fm-3m,cubic,0.0095
KSr3,mp-974738,I4/mmm,tetragonal,0.0047
Rb3V,mp-974743,Fm-3m,cubic,0.005
Rb3Sn,mp-974789,Fm-3m,cubic,0.2417
Rb3Ru,mp-974810,Fm-3m,cubic,0.008
Rb3Sm,mp-974816,Fm-3m,cubic,0.01
Rb3Tc,mp-974820,Fm-3m,cubic,0.0194
Rb3P,mp-974822,Fm-3m,cubic,0.6523
Rb3Pr,mp-974828,Fm-3m,cubic,0.0054
Rb3Os,mp-974843,Fm-3m,cubic,0.0882
Rb3Os,mp-974846,I4/mmm,tetragonal,0.0034
Rb3Nd,mp-974850,Fm-3m,cubic,0.0059
NdY3,mp-974865,Pm-3m,cubic,0.0059
Rb3Na,mp-974883,Fm-3m,cubic,0.0123
Rb3Mg,mp-974940,I4/mmm,tetragonal,0.0043
Rb3Ir,mp-974949,Fm-3m,cubic,0.036
Rb3Hg,mp-974951,Pm-3m,cubic,0.0079
Rb3Hf,mp-974972,I4/mmm,tetragonal,0.0004
HfZrZn2,mp-974973,Fm-3m,cubic,0.01
RbNa2Sb,mp-975275,Fm-3m,cubic,0.8406
RbLiO3,mp-975291,Pm-3m,cubic,0.0077
RbF3,mp-975312,Pm-3m,cubic,9.7193
RbF3,mp-975337,I4/mmm,tetragonal,9.7458
RbBeO3,mp-975394,Pm-3m,cubic,0.0163
Mn3Hg,mp-975467,Pm-3m,cubic,0.0053
RbBa3,mp-975509,I4/mmm,tetragonal,0.0011
NdInRh2,mp-975537,Fm-3m,cubic,0.0059
Pr3Cu,mp-975642,I4/mmm,tetragonal,0.0024
BeF2,mp-975644,P6/mmm,hexagonal,7.0472
PrZnSbO,mp-975646,P4/nmm,tetragonal,0.0262
Pr3Ag,mp-975647,I4/mmm,tetragonal,0.0005
PrTmMg2,mp-975789,Fm-3m,cubic,0.0147
Hf2RuRh,mp-975897,Fm-3m,cubic,0.0032
NaLi2Pb,mp-975997,Fm-3m,cubic,0.0368
NdTmMg2,mp-976008,Fm-3m,cubic,0.0416
Li3Co,mp-976017,I4/mmm,tetragonal,0.0031
PrEr3,mp-976135,I4/mmm,tetragonal,0.0034
K2RbSb,mp-976148,Fm-3m,cubic,1.0325
NaBH4,mp-976181,F-43m,cubic,6.6294
LiAlH4,mp-976291,I4_1/a,tetragonal,4.237
Li3Pr,mp-976321,Fm-3m,cubic,0.0151
Nd3Hg,mp-976417,I4/mmm,tetragonal,0.0089
Nd3Ho,mp-976418,I4/mmm,tetragonal,0.0009
MgMnO3,mp-976446,Pm-3m,cubic,0.0081
LiLu2Ga,mp-976596,Fm-3m,cubic,0.0154
Ni3Pb,mp-976830,Pm-3m,cubic,0.0529
NaNi3,mp-976870,I4/mmm,tetragonal,0.0068
NaRe3,mp-976943,Fm-3m,cubic,0.0049
NaLu3,mp-977314,I4/mmm,tetragonal,0.002
ThMgZn2,mp-977352,Fm-3m,cubic,0.0095
TbCdAu2,mp-977376,Fm-3m,cubic,0.01
ZnPd2Au,mp-977383,Fm-3m,cubic,0.014
TbAlAg2,mp-977394,Fm-3m,cubic,0.0384
TbCdPd2,mp-977397,Fm-3m,cubic,0.0133
ErInRh2,mp-977400,Fm-3m,cubic,0.0108
LiLu2Rh,mp-977405,Fm-3m,cubic,0.0237
Ho2AlOs,mp-977406,Fm-3m,cubic,0.0046
NdB2HF10,mp-977417,P2_1/m,monoclinic,7.9393
Yb2ZnRh,mp-977423,Fm-3m,cubic,0.0056
Ta2CrRu,mp-977425,Fm-3m,cubic,0.0208
Zn2PtRh,mp-977427,Fm-3m,cubic,0.0157
MgNbRu2,mp-977430,Fm-3m,cubic,0.0148
ErMgZn2,mp-977433,Fm-3m,cubic,0.0127
ZrAlRh2,mp-977435,Fm-3m,cubic,0.0157
Yb2ZnGa,mp-977442,Fm-3m,cubic,0.0078
Nd2ZnIr,mp-977445,Fm-3m,cubic,0.0239
MgMnRh2,mp-977463,Fm-3m,cubic,0.003
ZrInPd2,mp-977475,Fm-3m,cubic,0.0006
MgScAg2,mp-977554,Fm-3m,cubic,0.0146
MgNbRh2,mp-977555,Fm-3m,cubic,0.0133
MgScCd2,mp-977556,Fm-3m,cubic,0.0209
LiNbIr2,mp-977563,Fm-3m,cubic,0.0003
MgScHg2,mp-977564,Fm-3m,cubic,0.0105
HoSbPd2,mp-977574,Fm-3m,cubic,0.0469
MgSc2Al,mp-977580,Fm-3m,cubic,0.0041
Zr3Tl,mp-977585,Pm-3m,cubic,0.0197
ZnMo3,mp-977997,Pm-3m,cubic,0.0063
Rb3Sm,mp-978034,Pm-3m,cubic,0.0049
MgTa,mp-978258,Pmma,orthorhombic,0.0013
Mg2ZnPt,mp-978266,Fm-3m,cubic,0.0139
Mg3Br,mp-978272,I4/mmm,tetragonal,0.0043
TaBeO3,mp-972222,Pm-3m,cubic,0.0135
TcPt3,mp-972326,I4/mmm,tetragonal,0.0036
SmBS3,mp-972448,Pna2_1,orthorhombic,2.4308
Sm3Sc,mp-972479,I4/mmm,tetragonal,0.0004
Sm3Ti,mp-972486,I4/mmm,tetragonal,0.0046
SmTa3,mp-972514,Fm-3m,cubic,0.0068
SmY3,mp-972517,I4/mmm,tetragonal,0.0018
SmYAg2,mp-972528,Fm-3m,cubic,0.001
SmDyZn2,mp-972640,Fm-3m,cubic,0.0172
SmDyRh2,mp-972650,Fm-3m,cubic,0.004
SmCoSi3,mp-972659,I4mm,tetragonal,0.0082
SmHoRh2,mp-972660,Fm-3m,cubic,0.0035
SmBr,mp-972742,P-6m2,hexagonal,0.028
Si3F,mp-972767,Fm-3m,cubic,0.0005
Si2B2O5,mp-972793,P4/mmm,tetragonal,0.0349
SiO2,mp-972808,P2_1,monoclinic,5.6843
SiTc2W,mp-972810,Fm-3m,cubic,0.0045
SiGeN2O,mp-972831,P2_1,monoclinic,3.7701
Sc2RuAu,mp-972879,Fm-3m,cubic,0.0088
Sc2CdAg,mp-972882,Fm-3m,cubic,0.0089
Sc2AlAg,mp-972907,Fm-3m,cubic,0.014
Sc2AlCd,mp-972914,Fm-3m,cubic,0.0265
ScCu3,mp-973092,I4/mmm,tetragonal,0.0033
Mg2SnO4,mp-973261,Fd-3m,cubic,2.0984
Ho2RuAu,mp-973270,Fm-3m,cubic,0.0154
HoLuAg2,mp-973283,Fm-3m,cubic,0.002
HoLuAu2,mp-973285,Fm-3m,cubic,0.0041
Lu3Ga,mp-973300,P6_3/mmc,hexagonal,0.0035
Ho2PdRh,mp-973314,Fm-3m,cubic,0.0018
Lu2RuAu,mp-973414,Fm-3m,cubic,0.0238
Hg3C,mp-973450,Pm-3m,cubic,0.0207
Lu2TcAu,mp-973456,Fm-3m,cubic,0.0287
K3Si,mp-973528,Fm-3m,cubic,0.6228
K3Sc,mp-973535,Fm-3m,cubic,0.0026
Lu2AlZn,mp-973538,Fm-3m,cubic,0.0138
K3Sm,mp-973554,I4/mmm,tetragonal,0.0042
FeAu3,mp-973557,Fm-3m,cubic,0.0099
FePbO3,mp-973579,Pm-3m,cubic,0.0034
Lu(AlC)3,mp-973586,P6_3/mmc,hexagonal,0.0942
K3Sr,mp-973627,I4/mmm,tetragonal,0.001
KV5Se8,mp-973666,C2/m,monoclinic,0.0007
HgS,mp-973676,P6_3mc,hexagonal,0.7235
NdHo3,mp-973685,P6_3/mmc,hexagonal,0.0057
Pa3Tl,mp-973792,I4/mmm,tetragonal,0.0005
PdN,mp-973835,F-43m,cubic,0.0153
Pa2SbTe,mp-973843,Fm-3m,cubic,0.0002
Ni3Hg,mp-973884,Pm-3m,cubic,0.0086
Lu2CoRh,mp-973886,Fm-3m,cubic,0.0187
LuBr,mp-973976,P6_3mc,hexagonal,0.0079
Ho3Pb,mp-973992,I4/mmm,tetragonal,0.0011
Lu2GaCu,mp-973996,Fm-3m,cubic,0.0047
KTm,mp-974062,P-6m2,hexagonal,0.0053
Nd3Sm,mp-974066,Pm-3m,cubic,0.0134
HoErZn2,mp-974253,Fm-3m,cubic,0.0089
KH8N3,mp-974267,C222_1,orthorhombic,2.6471
Na3Al,mp-974270,Fm-3m,cubic,0.0234
NdCuTeO,mp-974307,P4/nmm,tetragonal,1.5333
RuI,mp-974315,P6_3mc,hexagonal,0.0029
NdDy3,mp-974325,P6_3/mmc,hexagonal,0.0026
Ir3Ru,mp-974358,I4/mmm,tetragonal,0.0005
RuAu3,mp-974364,I4/mmm,tetragonal,0.0018
Rh3Pb,mp-974368,I4/mmm,tetragonal,0.0011
Rh2S3,mp-974381,R-3c,rhombohedral,0.022
Re3Sb,mp-974417,Fm-3m,cubic,0.0045
Re3Mo,mp-974420,I4/mmm,tetragonal,0.0025
Re2C,mp-974437,P6_3/mmc,hexagonal,0.0038
Re3F,mp-974458,Fm-3m,cubic,0.0003
Ru3Cl,mp-974467,I4/mmm,tetragonal,0.0064
KYSn,mp-962072,F-43m,cubic,0.7967
YTlCd,mp-962074,F-43m,cubic,0.0142
CaCdSi,mp-962078,F-43m,cubic,0.0827
V3Ag,mp-971703,Pm-3m,cubic,0.0013
ZnCdS2,mp-971712,P-4m2,tetragonal,1.3734
U2Ga2O5,mp-971864,P4/mmm,tetragonal,0.0011
ZrH3,mp-972087,Pm-3m,cubic,0.0066
TiMn2Si,mp-865652,Fm-3m,cubic,0.0085
TiNbTc2,mp-865655,Fm-3m,cubic,0.0135
LiSm2Ru,mp-865708,Fm-3m,cubic,0.0097
Li2TlBi,mp-865713,Fm-3m,cubic,0.1589
YbCl2,mp-865716,P4_2/mnm,tetragonal,5.5663
YbGaPd2,mp-865756,Fm-3m,cubic,0.013
YbGeO3,mp-865758,Pm-3m,cubic,1.2162
CrPd3,mp-865786,Pm-3m,cubic,0.0056
Yb2AsAu,mp-865799,Fm-3m,cubic,0.0474
LuPaTc2,mp-865801,Fm-3m,cubic,0.0284
TaZnCo2,mp-865805,Fm-3m,cubic,0.0086
YbPaRu2,mp-865828,Fm-3m,cubic,0.0246
LuHfRu2,mp-865846,Fm-3m,cubic,0.0183
TmCdAu2,mp-865887,Fm-3m,cubic,0.0208
Ti3Tl,mp-865900,I4/mmm,tetragonal,0.0024
BeSiIr2,mp-865904,Fm-3m,cubic,0.0084
Lu2ZnTc,mp-865917,Fm-3m,cubic,0.0255
LiZrAu2,mp-865924,Fm-3m,cubic,0.0087
Cd2PdRh,mp-865926,Fm-3m,cubic,0.0411
Ti2TcPt,mp-865928,Fm-3m,cubic,0.0105
Cd2PtRh,mp-865929,Fm-3m,cubic,0.0497
YbF2,mp-865934,P4_2/mnm,tetragonal,6.9921
Li2CeTl,mp-865971,Fm-3m,cubic,0.0
PHPb2F10,mp-865973,P-1,triclinic,5.705
Li2CaGe,mp-865986,Fm-3m,cubic,0.0896
Al2IrRu,mp-865989,Fm-3m,cubic,0.0059
YbSbPd2,mp-865996,Fm-3m,cubic,0.0207
HfGaIr2,mp-865998,Fm-3m,cubic,0.0155
YbTlPd2,mp-865999,Fm-3m,cubic,0.0028
DyTmMg2,mp-866013,Fm-3m,cubic,0.0097
YbSmHg2,mp-866020,Fm-3m,cubic,0.0081
ErNbOs2,mp-866026,Fm-3m,cubic,0.0086
Al2FeIr,mp-866031,Fm-3m,cubic,0.0253
AlZnRh2,mp-866033,Fm-3m,cubic,0.0139
Ti3In,mp-866046,P6_3/mmc,hexagonal,0.0013
CaPrAg2,mp-866060,Fm-3m,cubic,0.011
MgSc2Tl,mp-866080,Fm-3m,cubic,0.0053
MgSc2Os,mp-866081,Fm-3m,cubic,0.0218
MgSc2Tc,mp-866082,Fm-3m,cubic,0.0453
HfZnCo2,mp-866096,Fm-3m,cubic,0.0091
HoNbRu2,mp-866112,Fm-3m,cubic,0.0345
HfTc2W,mp-866114,Fm-3m,cubic,0.0325
HoTaRu2,mp-866116,Fm-3m,cubic,0.0176
HfZnAu2,mp-866117,Fm-3m,cubic,0.0598
Tm2RuPt,mp-866119,Fm-3m,cubic,0.0235
LuTaRu2,mp-866125,Fm-3m,cubic,0.0387
LuSbRh2,mp-866137,Fm-3m,cubic,0.015
LuSbRu2,mp-866138,Fm-3m,cubic,0.016
TiGaPd2,mp-866140,Fm-3m,cubic,0.0099
TiGaIr2,mp-866142,Fm-3m,cubic,0.0273
Lu2AgOs,mp-866147,Fm-3m,cubic,0.0246
TiBeCo2,mp-866152,Fm-3m,cubic,0.0659
TiBeIr2,mp-866154,Fm-3m,cubic,0.0223
TiGaRh2,mp-866157,Fm-3m,cubic,0.003
KTl2Bi,mp-866169,Fm-3m,cubic,0.0154
Li2YbPb,mp-866180,Fm-3m,cubic,0.0092
Li2NdIn,mp-866181,Fm-3m,cubic,0.1001
Ti3Zn,mp-866186,Pm-3m,cubic,0.0172
Ti2ZnTc,mp-866187,Fm-3m,cubic,0.0098
HfSnRh2,mp-866221,Fm-3m,cubic,0.0478
AgBr,mp-866291,F-43m,cubic,1.0307
Ca2SnS4,mp-866819,I4/mmm,tetragonal,0.0913
Ca2SnS4,mp-866824,Pbam,orthorhombic,0.7301
CaSnS3,mp-866826,R-3,rhombohedral,1.6575
Ca2SnS4,mp-866829,C222_1,orthorhombic,1.0063
Ca3SnS5,mp-866830,I4/mcm,tetragonal,1.0155
Ca2SnS4,mp-866834,P2_1/m,monoclinic,1.9083
CaSnS3,mp-866844,Pnma,orthorhombic,0.7289
CaSnS3,mp-866845,Ima2,orthorhombic,0.0925
CaSnS3,mp-866850,Cmcm,orthorhombic,0.3318
Ca4SnS6,mp-866871,R-3c,rhombohedral,1.4893
Ca2SnS4,mp-866922,I-4,tetragonal,2.1706
LiDy2Ru,mp-867111,Fm-3m,cubic,0.0253
Ca2AsAu,mp-867113,Fm-3m,cubic,0.1178
Sc2CuPt,mp-867117,Fm-3m,cubic,0.0222
LiHfPd2,mp-867119,Fm-3m,cubic,0.0271
TaTiOs2,mp-867123,Fm-3m,cubic,0.0044
Al2RuPt,mp-867125,Fm-3m,cubic,0.0061
ScZnPd2,mp-867135,Fm-3m,cubic,0.0139
ScVRu2,mp-867137,Fm-3m,cubic,0.01
LiHfRh2,mp-867148,Fm-3m,cubic,0.0181
ScGaRu2,mp-867156,Fm-3m,cubic,0.0063
SmDyMg2,mp-867159,Fm-3m,cubic,0.0158
Sm2ZnIr,mp-867182,Fm-3m,cubic,0.0079
Sr2BiAu,mp-867193,Fm-3m,cubic,0.6175
Sr2HgPb,mp-867207,Fm-3m,cubic,0.0287
Sr2LiIn,mp-867208,Fm-3m,cubic,0.0364
Sc2ZnGa,mp-867242,Fm-3m,cubic,0.0011
Sc2ZnOs,mp-867243,Fm-3m,cubic,0.0374
CdAgPd2,mp-867260,Fm-3m,cubic,0.0359
Ho2CuRu,mp-867283,Fm-3m,cubic,0.0402
Ho2CuRh,mp-867284,Fm-3m,cubic,0.0139
Al2CoIr,mp-867319,Fm-3m,cubic,0.033
Al2RuRh,mp-867326,Fm-3m,cubic,0.0241
Er2NiOs,mp-867344,Fm-3m,cubic,0.0243
Dy2MgTl,mp-867349,Fm-3m,cubic,0.01
Ca2MgIn,mp-867350,Fm-3m,cubic,0.0392
TaGaFe2,mp-867507,Fm-3m,cubic,0.0108
CaBiO3,mp-867749,R-3,rhombohedral,0.054
BeSiRh2,mp-867767,Fm-3m,cubic,0.0016
ScZnRh2,mp-867769,Fm-3m,cubic,0.0174
TaGaOs2,mp-867788,Fm-3m,cubic,0.0477
TaTiMn2,mp-867821,Fm-3m,cubic,0.0101
SmH3,mp-867857,Fm-3m,cubic,0.0355
SmYMg2,mp-867861,Fm-3m,cubic,0.0324
Sm2AgRu,mp-867869,Fm-3m,cubic,0.0336
SmMgZn2,mp-867871,Fm-3m,cubic,0.0373
ScTlRh2,mp-867881,Fm-3m,cubic,0.0028
SmCdAu2,mp-867882,Fm-3m,cubic,0.0161
Sm2CuRu,mp-867895,Fm-3m,cubic,0.0123
ScTaRu2,mp-867897,Fm-3m,cubic,0.007
DyAgHg2,mp-867898,Fm-3m,cubic,0.0178
Sm2IrRh,mp-867899,Fm-3m,cubic,0.0106
LiLuAu2,mp-867903,Fm-3m,cubic,0.0022
ErNbRu2,mp-867919,Fm-3m,cubic,0.0243
TaInRu2,mp-867958,Fm-3m,cubic,0.0303
KBaP,mp-961648,F-43m,cubic,1.2182
ZrFeTe,mp-961649,F-43m,cubic,1.2126
YNiP,mp-961657,F-43m,cubic,0.5798
SrTePd,mp-961663,F-43m,cubic,0.5926
MgScGa,mp-961665,F-43m,cubic,0.0768
CaNiTe,mp-961667,F-43m,cubic,0.1932
AlVPt,mp-961668,F-43m,cubic,0.0064
NbGaPt,mp-961669,F-43m,cubic,0.0067
SrAlGa,mp-961672,F-43m,cubic,0.0057
TaGaPt,mp-961677,F-43m,cubic,0.0158
ScCoTe,mp-961678,F-43m,cubic,0.9024
TaAlPt,mp-961679,F-43m,cubic,0.0239
NbAlPt,mp-961680,F-43m,cubic,0.0264
TiSnPd,mp-961682,F-43m,cubic,0.1148
LiMgP,mp-961683,F-43m,cubic,1.8942
HfSiNi,mp-961686,F-43m,cubic,0.0259
ZrSnPd,mp-961687,F-43m,cubic,0.1523
VGaNi,mp-961690,F-43m,cubic,0.006
TaInNi,mp-961692,F-43m,cubic,0.0134
ZrInAu,mp-961693,F-43m,cubic,0.1678
ScGeAu,mp-961697,F-43m,cubic,0.0518
ZrAgB,mp-961701,F-43m,cubic,0.014
NaLiPt,mp-961703,F-43m,cubic,0.2943
TiPtPb,mp-961705,F-43m,cubic,0.0382
ZrPtPb,mp-961709,F-43m,cubic,0.0173
ZrSiPt,mp-961711,F-43m,cubic,1.3683
TaTlPt,mp-961712,F-43m,cubic,1.0697
ZrSnPt,mp-961713,F-43m,cubic,0.9979
VSnPt,mp-961716,F-43m,cubic,0.0028
VInPt,mp-961717,F-43m,cubic,0.024
HfAsRh,mp-961719,F-43m,cubic,0.0198
NbInNi,mp-961731,F-43m,cubic,0.006
HfNiPb,mp-961732,F-43m,cubic,0.0137
BaNaSb,mp-961774,F-43m,cubic,0.2499
SrCaSi,mp-962057,F-43m,cubic,0.1091
YSeCl,mp-962058,F-43m,cubic,1.9092
Er2CuPt,mp-862940,Fm-3m,cubic,0.007
Ba2BiAu,mp-862947,Fm-3m,cubic,0.6315
NbBiO4,mp-863076,C2,monoclinic,2.4679
KNa2Bi,mp-863707,Fm-3m,cubic,0.8322
Ho2OsPd,mp-863729,Fm-3m,cubic,0.0196
ErRh2Pb,mp-863735,Fm-3m,cubic,0.0058
Ba2InBiS5,mp-864638,Cmc2_1,orthorhombic,1.4185
Ta2NbIr,mp-864640,Fm-3m,cubic,0.0047
ErAgHg2,mp-864646,Fm-3m,cubic,0.0112
Ta2OsW,mp-864650,Fm-3m,cubic,0.0012
HoMgAu2,mp-864653,Fm-3m,cubic,0.0043
Zn2NiRh,mp-864654,Fm-3m,cubic,0.0058
ZnCuPd2,mp-864661,Fm-3m,cubic,0.0049
HfAlRh2,mp-864671,Fm-3m,cubic,0.0047
HfInCo2,mp-864715,Fm-3m,cubic,0.0148
Ta2MnOs,mp-864761,Fm-3m,cubic,0.0022
LiYb2Tl,mp-864769,Fm-3m,cubic,0.0162
ZrAlAu2,mp-864878,Fm-3m,cubic,0.0029
Na2TlBi,mp-864898,Fm-3m,cubic,0.3971
Na3UF8,mp-864913,Immm,orthorhombic,0.0014
MgZrIr2,mp-864921,Fm-3m,cubic,0.0013
MnV2Cr,mp-864953,Fm-3m,cubic,0.0138
MnInRh2,mp-864968,Fm-3m,cubic,0.0013
Hf2CuOs,mp-864974,Fm-3m,cubic,0.0216
DyAl3,mp-864995,P6_3/mmc,hexagonal,0.0014
HfScOs2,mp-865001,Fm-3m,cubic,0.0268
HfGaRu2,mp-865010,Fm-3m,cubic,0.0376
HfGaRh2,mp-865019,Fm-3m,cubic,0.0463
HfMgIr2,mp-865020,Fm-3m,cubic,0.0144
HfTc2Sb,mp-865023,Fm-3m,cubic,0.0023
HfTaRe2,mp-865025,Fm-3m,cubic,0.0013
LiPaPt2,mp-865046,Fm-3m,cubic,0.0014
TiZnIr2,mp-865048,Fm-3m,cubic,0.055
HfInRh2,mp-865066,Fm-3m,cubic,0.0248
NaGaH8(NF3)2,mp-865095,Fm-3m,cubic,6.0931
NaSmHg2,mp-865108,Fm-3m,cubic,0.0029
NaSmTl2,mp-865109,Fm-3m,cubic,0.0032
NaPaO3,mp-865120,Pm-3m,cubic,3.2799
NaNdTl2,mp-865122,Fm-3m,cubic,0.0048
NaSr2Tl,mp-865128,Fm-3m,cubic,0.0222
Hf2OsRh,mp-865131,Fm-3m,cubic,0.0067
DyMgZn2,mp-865142,Fm-3m,cubic,0.0085
Dy2AgRu,mp-865161,Fm-3m,cubic,0.0191
HfCdCu2,mp-865164,Fm-3m,cubic,0.0857
HfCu3,mp-865176,Fm-3m,cubic,0.0068
Mg(BeAs)2,mp-865185,P-3m1,hexagonal,0.6931
MgFeRh2,mp-865187,Fm-3m,cubic,0.0006
MgH8(ClO6)2,mp-865188,C2,monoclinic,5.6794
Co3Pt,mp-865193,P6_3/mmc,hexagonal,0.0
TmF3,mp-865194,I4/mmm,tetragonal,5.6507
YbTiO3,mp-865218,Pm-3m,cubic,1.9474
Dy2CuRu,mp-865220,Fm-3m,cubic,0.0079
TmMgAu2,mp-865225,Fm-3m,cubic,0.0083
TmMgZn2,mp-865233,Fm-3m,cubic,0.003
Lu2MgIn,mp-865240,Fm-3m,cubic,0.003
LuMgPd2,mp-865253,Fm-3m,cubic,0.0095
TbYbHg2,mp-865254,Fm-3m,cubic,0.0128
DyZnRh2,mp-865257,Fm-3m,cubic,0.045
Lu2ZnIr,mp-865260,Fm-3m,cubic,0.0169