formula,mpid,space group,bravais lattice,gap opt
Sr(H2N)2,mp-696969,I4_1/amd,tetragonal,2.5102
KGaH4,mp-696983,Pnma,orthorhombic,5.0974
H2O,mp-697085,I4_1/amd,tetragonal,5.6282
Be(HO)2,mp-697136,P2_12_12_1,orthorhombic,5.8282
PHN2,mp-697139,P2_12_12_1,orthorhombic,4.9088
RbH2N,mp-697144,P2_1/m,monoclinic,2.2081
Mg2NiH4,mp-697331,C2/c,monoclinic,1.7254
Sr2B5H2O11,mp-699248,C2,monoclinic,4.9651
AsH6NO4,mp-703470,I-42d,tetragonal,4.3013
Cr3O,mp-714896,R-3c,rhombohedral,0.0054
Yb(DyS2)2,mp-676154,I-42d,tetragonal,2.1833
Ca2SiO4,mp-676278,Cc,monoclinic,4.2766
Dy2Zr2O7,mp-676319,Pmma,orthorhombic,2.8946
NaNdS2,mp-676360,I4_1/amd,tetragonal,1.9933
TlNO2,mp-676400,P1,triclinic,1.0791
LuAgS2,mp-676410,Ima2,orthorhombic,0.8482
Cd3AsI3,mp-676464,Pm,monoclinic,0.8537
Na3AlF6,mp-676512,R-3,rhombohedral,7.0559
TlSbS2,mp-676540,P-1,triclinic,1.0958
RbCrI3,mp-676553,C2/m,monoclinic,0.0099
Ag3SI,mp-676561,R32,rhombohedral,0.5109
Ba2NF,mp-676643,I4_1/amd,tetragonal,0.0263
Li6Br3N,mp-676650,Cm,monoclinic,2.5549
NaClO2,mp-676673,Pc,monoclinic,2.4879
NaHo2F7,mp-676779,P1,triclinic,6.7141
KNO3,mp-676851,R32,rhombohedral,3.071
AlSbO4,mp-676861,Cmmm,orthorhombic,1.7682
RbBiF3,mp-677028,P1,triclinic,1.6861
Ca(InTe2)2,mp-677072,I422,tetragonal,0.7735
RbHF2,mp-677103,Ima2,orthorhombic,7.1473
Yb(BiTe2)2,mp-677162,I-42d,tetragonal,0.0395
CuAs2Pb6Cl7O6,mp-677164,R3,rhombohedral,2.5133
Mg3BH2O5F,mp-677193,Pm,monoclinic,4.1336
LuCuSe2,mp-677241,P3m1,hexagonal,1.3221
K2SO4,mp-677242,Cmcm,orthorhombic,5.4614
GaPO4,mp-677335,I-4,tetragonal,4.8137
AlFe2Mo,mp-672259,Fm-3m,cubic,0.0034
UNiSn,mp-672385,F-43m,cubic,0.0052
Bi2O3,mp-673244,Cm,monoclinic,1.019
In2S3,mp-673633,Cc,monoclinic,1.0006
Tb2YbS4,mp-673682,I-42d,tetragonal,2.1619
K3ClO,mp-673798,Amm2,orthorhombic,1.2885
Mg2SiO4,mp-673808,Imma,orthorhombic,4.3211
NaErF4,mp-674459,I4_1/amd,tetragonal,7.1392
AlHO2,mp-674463,Pmc2_1,orthorhombic,5.3406
BaCO3,mp-674478,R-3c,rhombohedral,4.4441
RbPbF3,mp-674508,Cc,monoclinic,4.0009
In5CuS8,mp-674514,F-43m,cubic,0.2056
Sm2PbSe4,mp-674804,I-42d,tetragonal,1.7613
TlBiF4,mp-674849,P2_1/m,monoclinic,3.8946
Ag3SI,mp-674981,Pm,monoclinic,0.6837
Sm2ZnS4,mp-675067,I-42d,tetragonal,1.3997
Nd2PbSe4,mp-675100,I-42d,tetragonal,1.7585
Na3YCl6,mp-675104,R-3,rhombohedral,5.3001
In4SnS8,mp-675124,R3m,rhombohedral,0.4575
Pr2PbSe4,mp-675146,I-42d,tetragonal,1.747
TaAlO4,mp-675172,Cmmm,orthorhombic,1.8791
Ba3Bi2F12,mp-675179,P1,triclinic,5.1902
ErCuSe2,mp-675180,P3m1,hexagonal,1.2514
NaPrS2,mp-675199,I4_1/amd,tetragonal,1.9997
Dy2PbS4,mp-675209,I-42d,tetragonal,2.2396
Yb(NdS2)2,mp-675244,I-42d,tetragonal,2.0631
Na2CO5,mp-675271,Cm,monoclinic,3.8267
TlPF6,mp-675283,R-3m,rhombohedral,6.0503
Ca3UN4,mp-675286,Fmm2,orthorhombic,1.4806
DyCuSe2,mp-675349,P3m1,hexagonal,1.1992
Li6I3N,mp-675488,Cm,monoclinic,2.8077
Sm2PbS4,mp-675511,I-42d,tetragonal,2.2203
KPF6,mp-675569,R-3m,rhombohedral,7.5391
Al3NO3,mp-675601,Pnma,orthorhombic,4.4821
Li5AuO4,mp-675606,P-1,triclinic,2.2045
KBi2F7,mp-675634,P1,triclinic,4.4768
Pr2PbS4,mp-675638,I-42d,tetragonal,2.2492
MgPS3,mp-675651,C2/m,monoclinic,3.1228
Zn2GeS4,mp-675748,I-42m,tetragonal,2.2546
NaHoF4,mp-675798,I4_1/amd,tetragonal,7.1421
YCuSe2,mp-675902,P3m1,hexagonal,1.2074
Ga3Os,mp-570844,P4_2/mnm,tetragonal,0.7649
SmAgPb,mp-570855,P6_3mc,hexagonal,0.0138
AgCl,mp-570858,Cmcm,orthorhombic,0.4877
CrCoPt2,mp-570863,P4/mmm,tetragonal,0.0022
Ga2Os,mp-570875,Fddd,orthorhombic,0.6661
K2Ag2SnSe4,mp-570887,P2/c,monoclinic,0.777
KBr,mp-570891,Pm-3m,cubic,4.3436
GaNi2,mp-570904,P6_3/mmc,hexagonal,0.0056
NdPt,mp-570934,Cmcm,orthorhombic,0.0005
LiI,mp-570935,P6_3mc,hexagonal,4.5534
NaLi2N,mp-570950,P6/mmm,hexagonal,0.0336
Dy2CdSe4,mp-570959,Fd-3m,cubic,0.3893
CdBiSe2I,mp-570961,C2/m,monoclinic,1.2858
Sr3Ga3N5,mp-570971,P-1,triclinic,1.5964
NaLi2N,mp-570998,P6/mmm,hexagonal,0.3871
YCd3,mp-571059,Fm-3m,cubic,0.0276
TlCl,mp-571079,Cmcm,orthorhombic,2.4676
ErMn2,mp-571090,Fd-3m,cubic,0.0001
BaAlSiH,mp-571093,P3m1,hexagonal,0.8065
TlI,mp-571102,Fm-3m,cubic,2.1187
Mg(BH4)2,mp-571156,Pmc2_1,orthorhombic,5.9277
Ca3(GaN2)2,mp-571162,C2/c,monoclinic,2.2528
ZnTe,mp-571195,P3_1,hexagonal,1.057
Sr(CoAs)2,mp-571203,I4/mmm,tetragonal,0.0018
Sr3(AlGe2)2,mp-571216,C2/m,monoclinic,0.0119
YbBr2,mp-571232,Pbcn,orthorhombic,4.7384
Al3Mo,mp-571247,C2/m,monoclinic,0.0183
Ge3N4,mp-571281,I-43d,cubic,1.7526
KTa(AgSe2)2,mp-571288,Ama2,orthorhombic,1.6597
Ba(CrAs)2,mp-571339,I4/mmm,tetragonal,0.0078
TiGa2,mp-571342,I4_1/amd,tetragonal,0.0023
Hf(CoSi)2,mp-571367,I4/mmm,tetragonal,0.0018
Nd(CoAs)2,mp-571382,I4/mmm,tetragonal,0.0009
KMnAg3(CN)6,mp-571384,P312,hexagonal,1.2647
CuCl,mp-571386,Fm-3m,cubic,0.2948
MgCl2,mp-571387,Pmma,orthorhombic,4.4719
KNa(BH4)2,mp-571414,P3m1,hexagonal,6.3864
Be12V,mp-571438,I4/mmm,tetragonal,0.0065
K2CuBr3,mp-571440,Pnma,orthorhombic,2.1751
LiAgC2,mp-571454,P-6m2,hexagonal,1.5128
HoB6,mp-571491,Pm-3m,cubic,0.018
Ho(FeB)2,mp-571500,I4/mmm,tetragonal,0.0009
Na2LiN,mp-571587,P4/nmm,tetragonal,0.884
CaCl2,mp-571627,Pnma,orthorhombic,5.0839
Ba2Li3TaN4,mp-573677,C2/c,monoclinic,2.4873
UAl4,mp-574122,Imma,orthorhombic,0.0004
Tm3AlC,mp-574239,Pm-3m,cubic,0.0182
SeN,mp-574424,C2/c,monoclinic,1.6844
NaC4N3,mp-574822,P-1,triclinic,3.6024
NaCuO2,mp-578606,R-3m,rhombohedral,0.0017
RbN3,mp-581833,P4/mmm,tetragonal,3.9542
KBiF4,mp-581857,Fd-3m,cubic,3.3779
SmI2,mp-581941,Pbca,orthorhombic,0.0042
Li7VN4,mp-582259,P4_2/nmc,tetragonal,2.2543
LiI,mp-568273,P6_3/mmc,hexagonal,4.5581
Li2AgBi,mp-569333,F-43m,cubic,0.009
CuI,mp-569346,P6_3mc,hexagonal,1.2967
FeB2,mp-569376,P6/mmm,hexagonal,0.0055
Cr2B,mp-569424,Fddd,orthorhombic,0.0012
RbAuCl4,mp-569442,C2/c,monoclinic,1.8427
NiPb,mp-569446,P6_3/mmc,hexagonal,0.0052
LiB6C,mp-569450,Amm2,orthorhombic,1.4321
Ca2Bi,mp-569535,I4/mmm,tetragonal,0.0193
Nb3Sb2Te5,mp-569571,I-43m,cubic,0.9902
Ge3As4,mp-569600,P-43m,cubic,0.068
Ca3Zn2(CuP2)2,mp-569617,P-3m1,hexagonal,0.0384
TlCl,mp-569639,Fm-3m,cubic,2.7242
TiSb,mp-569640,P6_3/mmc,hexagonal,0.0165
Sr2IN,mp-569677,R-3m,rhombohedral,1.9995
Tb(SiPt)2,mp-569737,I4/mmm,tetragonal,0.0057
TlCoCl3,mp-569753,P6_3/mmc,hexagonal,0.0199
TlPd3,mp-569785,P4/mmm,tetragonal,0.0134
BaAg2GeSe4,mp-569790,I222,orthorhombic,0.0023
BaN3Cl,mp-569812,P2_1/m,monoclinic,4.0996
Si2Ru,mp-569815,Cmce,orthorhombic,0.2405
YInAg2,mp-569823,Fm-3m,cubic,0.0189
MnTl2SnTe4,mp-569859,I-42m,tetragonal,0.0031
SrP3,mp-569867,C2/m,monoclinic,0.0698
Tm6CoBi2,mp-569871,P-62m,hexagonal,0.01
Sr(NiSb)2,mp-569881,I4/mmm,tetragonal,0.0045
HfCuP,mp-569933,P3m1,hexagonal,0.0162
K3Bi,mp-569940,P6_3/mmc,hexagonal,0.0621
YbSbPt,mp-570014,F-43m,cubic,0.0171
K2SnCl6,mp-570173,P4/mnc,tetragonal,2.4598
TbAu2,mp-570179,I4/mmm,tetragonal,0.0032
ThBr4,mp-570229,I4_1/a,tetragonal,3.1753
TbCl3,mp-570232,P4_2/mnm,tetragonal,4.4416
Ca3(AlN2)2,mp-570258,C2/c,monoclinic,2.5424
AgBr,mp-570301,P2_1/m,monoclinic,0.7427
CuBr,mp-570354,Fm-3m,cubic,0.3825
Sn3As4,mp-570377,P-43m,cubic,0.285
Nd(CrSi)2,mp-570399,I4/mmm,tetragonal,0.0037
AgTe3I,mp-570431,Pmna,orthorhombic,0.8794
SrAlSiH,mp-570485,P3m1,hexagonal,0.7098
AgCl,mp-570687,P2_1/m,monoclinic,0.9333
CaC2,mp-570697,Pn-3m,cubic,1.7499
V3Au,mp-570698,Pm-3m,cubic,0.0037
Si3As4,mp-570744,P-43m,cubic,0.2315
YbHg2,mp-570749,P6/mmm,hexagonal,0.0054
Tb4Bi3,mp-570759,I-43d,cubic,0.0162
VO2,mp-566801,P2/m,monoclinic,0.8134
YbRh,mp-567089,Pm-3m,cubic,0.0442
Yb(SiOs)2,mp-567093,I4/mmm,tetragonal,0.006
BRh,mp-567164,P6_3/mmc,hexagonal,0.0205
KNb(AgSe2)2,mp-567177,Ama2,orthorhombic,1.3901
Li4Ca3(SiN3)2,mp-567219,C2/m,monoclinic,2.4545
Hf2SbP,mp-567220,P6_3/mmc,hexagonal,0.0068
LuAlSi,mp-567229,Cmcm,orthorhombic,0.0061
Tm(CrSi)2,mp-567243,I4/mmm,tetragonal,0.0007
Sr(Si3N4)2,mp-567278,Imm2,orthorhombic,3.3369
KC2IN2,mp-567299,C2/m,monoclinic,4.2107
SmZn5,mp-567406,P6/mmm,hexagonal,0.0065
HoSbPd,mp-567418,F-43m,cubic,0.2067
CaGe2,mp-567456,R-3m,rhombohedral,0.0076
Ho(PRu)2,mp-567458,I4/mmm,tetragonal,0.0089
PtCl2,mp-567484,Pnnm,orthorhombic,0.055
Ho7FeI12,mp-567566,R-3,rhombohedral,0.0048
PaC,mp-567580,Fm-3m,cubic,0.0171
Hf2Te,mp-567584,C2/m,monoclinic,0.0045
DyAl3,mp-567589,Pm-3m,cubic,0.0073
MgZn2,mp-567626,Cmcm,orthorhombic,0.0048
VFeSb,mp-567636,F-43m,cubic,0.2668
RbCu2Br3,mp-567644,Cmcm,orthorhombic,1.8735
Sr2C(NCl)2,mp-567655,C2/m,monoclinic,4.403
GeI2,mp-567677,P-6m2,hexagonal,1.7618
BaCl2,mp-567680,P-62m,hexagonal,4.5264
TiAl2,mp-567705,I4_1/amd,tetragonal,0.0155
PrCoGe,mp-567712,P4/nmm,tetragonal,0.0081
SrBr2,mp-567744,Pnma,orthorhombic,4.6497
Sm(CrSi)2,mp-567830,I4/mmm,tetragonal,0.0032
K2NaBP2,mp-567836,C2/m,monoclinic,1.8326
CrGaCo2,mp-567981,Fm-3m,cubic,0.0056
Ca3SiBr2,mp-568050,Immm,orthorhombic,0.0885
Ti2Bi,mp-568069,I4/mmm,tetragonal,0.0014
NbCoSn,mp-568075,F-43m,cubic,0.0688
Yb(PRu)2,mp-568095,I4/mmm,tetragonal,0.0022
TbCl3,mp-568170,P6_3/m,hexagonal,4.254
Lu2ZnS4,mp-18332,Pnma,orthorhombic,2.3719
K7NbAs4,mp-18361,Pmn2_1,orthorhombic,1.3187
Na3Ca2TaO6,mp-18480,Fddd,orthorhombic,4.2528
K6MnSe4,mp-18481,P6_3mc,hexagonal,0.4302
K3AsSe3,mp-18594,P2_13,cubic,2.0713
Ca2CoSi2O7,mp-18786,P-42_1m,tetragonal,1.6221
Si3Ru2,mp-20191,P-4c2,tetragonal,0.0188
PPbS3,mp-20199,P2_1/c,monoclinic,2.2478
Dy2Be2GeO7,mp-20778,P-42_1m,tetragonal,4.6009
TiCdO3,mp-20940,Pmc2_1,orthorhombic,2.3491
InPO4,mp-22569,Pnma,orthorhombic,3.062
NaBrO3,mp-23339,P2_13,cubic,4.4533
K4CdCl6,mp-23392,R-3c,rhombohedral,4.0602
Na3InCl6,mp-23503,P-31c,hexagonal,3.7578
NaMgH3,mp-23730,Pnma,orthorhombic,3.6767
CaH12(ClO3)2,mp-23914,P321,hexagonal,5.0565
TcH4NO4,mp-23925,I4_1/a,tetragonal,3.419
HIO3,mp-23963,P2_12_12_1,orthorhombic,3.085
K3AlH6,mp-24034,P2_1/c,monoclinic,3.2364
CaH12(BrO3)2,mp-24044,P321,hexagonal,4.1851
K3B12H12I,mp-24240,R-3m,rhombohedral,4.9422
RbHCO2,mp-24328,Pbcm,orthorhombic,4.3697
LiBeH3,mp-24342,Pnma,orthorhombic,3.0634
K2LiAlH6,mp-24411,Fm-3m,cubic,2.7211
K2NaAlH6,mp-24412,Fm-3m,cubic,2.6757
Rb2CuH4(Cl2O)2,mp-24559,P4_2/mnm,tetragonal,4.027
HoCuS2,mp-560611,P2_12_12_1,orthorhombic,1.7284
KCO2,mp-560616,Pbam,orthorhombic,2.7249
BaZr(PO4)2,mp-560620,P-3m1,hexagonal,4.0091
Mg3(PO4)2,mp-560623,P2_1/c,monoclinic,5.5845
MgSeO4,mp-560670,Pnma,orthorhombic,3.3686
K6Cu(SiO4)2,mp-560675,P-1,triclinic,1.9832
KNaTiO3,mp-560767,C2/c,monoclinic,3.5619
Nd3Si2ClO8,mp-560830,C2/c,monoclinic,5.317
Cd2SiO4,mp-560842,Fd-3m,cubic,1.306
Tb3Si2S8I,mp-560853,C2/c,monoclinic,2.459
Na2PtO3,mp-560860,Fddd,orthorhombic,1.7229
BaGa2B2O7,mp-560870,Cmcm,orthorhombic,4.2092
CaSiO3,mp-560885,Pnma,orthorhombic,4.2159
CdHg2SO6,mp-560904,P-1,triclinic,1.4385
SiO2,mp-560954,I4_122,tetragonal,4.5334
Rb2NaMoF6,mp-560963,Fm-3m,cubic,1.8566
KTiPS5,mp-560977,C2/m,monoclinic,1.1736
Ga2PbO4,mp-561013,P1,triclinic,3.6246
Rb2Sb4S7,mp-561051,P-1,triclinic,1.8761
BiAsO4,mp-561068,I4_1/a,tetragonal,3.1902
Na2CdSnS4,mp-561075,C2,monoclinic,1.8538
Yb2PrDyS6,mp-561096,P2_1/m,monoclinic,1.0996
InBiO3,mp-561102,Pnma,orthorhombic,2.5743
Ga(IO3)3,mp-561104,P6_3,hexagonal,3.2805
ZnS,mp-561118,P6_3mc,hexagonal,2.097
Nd3Si2S8I,mp-561126,C2/c,monoclinic,2.5837
K2Ge2PbS6,mp-561132,C2/c,monoclinic,2.0407
Y3CuSiS7,mp-561173,P6_3,hexagonal,1.8444
NdGa3(BO3)4,mp-561187,R32,rhombohedral,4.7079
TaF5,mp-561197,C2/m,monoclinic,5.5501
TeO2,mp-561224,P2_12_12_1,orthorhombic,3.0407
Ba2TiOF6,mp-561256,Cc,monoclinic,3.8016
SiO2,mp-561291,P-4c2,tetragonal,5.3249
SrLi2Nb2O7,mp-561294,I4/mmm,tetragonal,1.5107
NaSb(PS3)2,mp-561303,P2_1,monoclinic,2.0196
DySCl,mp-561307,P2_1/c,monoclinic,2.7222
Ca(ClO2)2,mp-561366,Ccce,orthorhombic,2.6686
CaCO3,mp-561412,C2,monoclinic,5.1039
KAlF4,mp-561424,P2_1/m,monoclinic,7.298
Y2Hf2O7,mp-561442,Fd-3m,cubic,3.4513
Ba3(PS4)2,mp-561443,P-3m1,hexagonal,1.9328
BaCa(GaO2)4,mp-561446,Imm2,orthorhombic,3.2104
AgTeO3,mp-561489,P2_1/m,monoclinic,1.1511
KNaMg2Si4(O5F)2,mp-561491,C2/m,monoclinic,5.5329
Dy3CuSnS7,mp-561499,P6_3,hexagonal,1.4762
Ca4Al6O13,mp-561507,I-43m,cubic,4.1011
Mg2BiAsO6,mp-561518,Cmcm,orthorhombic,3.4689
Y2Si2O7,mp-561531,P2_1/m,monoclinic,4.7458
NaMgBO3,mp-561536,C2/c,monoclinic,4.1078
Y2Si2O7,mp-561551,P2_1/m,monoclinic,5.4437
HoF3,mp-561877,Pnma,orthorhombic,8.0868
ZnSiO3,mp-562182,C2/c,monoclinic,3.6742
GePb3O5,mp-562283,Cmm2,orthorhombic,1.9826
SiO2,mp-562490,C2/c,monoclinic,5.5882
CaMg(SiO3)2,mp-562517,C2/c,monoclinic,4.8917
AgCSN,mp-562550,Pnnm,orthorhombic,2.3263
Na6PbO5,mp-563025,I4mm,tetragonal,1.2405
KCrF3,mp-566131,P4/mmm,tetragonal,0.0034
SiO2,mp-559860,Ccce,orthorhombic,4.5623
CaAl2O4,mp-558636,P2_1/m,monoclinic,5.1454
ZnB4O7,mp-558690,Cmcm,orthorhombic,5.7188
SiO2,mp-558733,C2/c,monoclinic,5.8325
Sc2O3,mp-558748,C2/m,monoclinic,3.5603
K3Nb3(BO6)2,mp-558828,P31m,hexagonal,2.2504
KNdPdO3,mp-558831,C2/m,monoclinic,0.0191
CdBiS2Cl,mp-558849,Pnma,orthorhombic,1.9126
ScF3,mp-559092,R32,rhombohedral,6.212
SrTiSi2O7,mp-559208,Cmcm,orthorhombic,3.6298
K2S,mp-559278,P6_3/mmc,hexagonal,2.4054
SiO2,mp-559389,R-3,rhombohedral,4.3699
Zn(CO2)2,mp-559437,P2_1/c,monoclinic,3.2696
InBi2S4Cl,mp-559521,C2/m,monoclinic,1.5752
NaB(CO2)4,mp-559618,Cmcm,orthorhombic,3.5221
Ni3(BiS)2,mp-559634,R-3m,rhombohedral,0.0065
SrCa(CO3)2,mp-559653,Pmc2_1,orthorhombic,4.9268
Ca2Al2SiO7,mp-559691,P-42_1m,tetragonal,4.5843
Ga(MoS2)4,mp-559694,R3m,rhombohedral,1.2382
KHg2S(ClO)3,mp-559765,Cmc2_1,orthorhombic,2.6553
AlF3,mp-559871,Cmcm,orthorhombic,7.8954
LiBi(PdO2)2,mp-559893,P4/nmm,tetragonal,0.8569
SiO2,mp-559928,P6_3/mmc,hexagonal,5.4921
Ba3In2Cl2O5,mp-559933,I4/mmm,tetragonal,1.5545
Na2AlZnF7,mp-559982,Imma,orthorhombic,5.0518
Ag2S,mp-560025,P2_1,monoclinic,1.0795
Rb2NaBiF6,mp-560037,Fm-3m,cubic,5.1249
TbCl2F,mp-560119,C2/c,monoclinic,4.8895
AlPO4,mp-560151,P6_422,hexagonal,5.6295
MgF2,mp-560236,C2/m,monoclinic,6.4581
NaMgF3,mp-560399,Pm-3m,cubic,6.3378
K4Ru2Cl10O,mp-560515,I4/mmm,tetragonal,0.0026
KCrF3,mp-560547,I4/m,tetragonal,0.0008
Pr3S4,mp-1449,I-43d,cubic,0.0059
Cu4O3,mp-1478,I4_1/amd,tetragonal,0.0059
MgF2,mp-1746,Pa-3,cubic,7.2597
BeO,mp-1794,Fm-3m,cubic,8.6913
Al2O3,mp-1938,Pbcn,orthorhombic,5.8897
Sm3S4,mp-2038,I-43d,cubic,0.0107
RbF,mp-2064,Pm-3m,cubic,6.7208
BN,mp-2653,P6_3mc,hexagonal,5.4319
Ga(MoS2)4,mp-2885,F-43m,cubic,1.2383
KAlF4,mp-2910,P4/mbm,tetragonal,7.4813
Na6CoSe4,mp-3017,P6_3mc,hexagonal,0.7457
CaSO4,mp-3082,P6_222,hexagonal,5.8332
MgSiO3,mp-3547,Pnma,orthorhombic,6.0322
Nd(BO2)3,mp-3615,C2/c,monoclinic,5.6579
AlPO4,mp-3955,P3_221,hexagonal,5.9527
AlPO4,mp-4051,C222_1,orthorhombic,5.7334
Ca4IrO6,mp-4100,R-3c,rhombohedral,2.7655
RbAlF4,mp-4693,Pmmn,orthorhombic,7.5403
HoAlO3,mp-4891,Pnma,orthorhombic,5.9808
KCaF3,mp-4950,Pm-3m,cubic,6.5362
MgSO4,mp-4967,Pnma,orthorhombic,6.1132
CaZnF4,mp-5104,I4_1/a,tetragonal,5.4151
K2CoS2,mp-5131,Ibam,orthorhombic,0.0205
RbAlF4,mp-5259,P4/mbm,tetragonal,7.5231
AlPO4,mp-5331,P3_121,hexagonal,5.9533
Na3AlF6,mp-5468,Immm,orthorhombic,6.258
SrB4O7,mp-5540,Pmn2_1,orthorhombic,7.3523
Mg2B2O5,mp-5547,P-1,triclinic,5.5559
Pb(SeO3)2,mp-558163,P2_1/c,monoclinic,1.359
Ag3SI,mp-558189,Pm-3m,cubic,0.8377
TaBi4ClO8,mp-558314,P4/mmm,tetragonal,1.268
Ho2O3,mp-558336,C2/m,monoclinic,4.1361
Na2CrF4,mp-558383,P2_1/c,monoclinic,0.0555
AgHgSI,mp-558446,Pmma,orthorhombic,1.1603
Y2O3,mp-558573,C2/m,monoclinic,4.0948
KNaSO4,mp-558632,P3m1,hexagonal,5.5059
AlPO4,mp-5724,P2_1,monoclinic,5.6641
NaO2,mp-614,Pa-3,cubic,5.0883
U3O8,mp-698,Cmmm,orthorhombic,0.0013
B2O3,mp-717,Cmc2_1,orthorhombic,8.8104
Pr3Se4,mp-722,I-43d,cubic,0.0041
Ti6O,mp-882,P-31m,hexagonal,0.0048
CaF2,mp-10464,Pnma,orthorhombic,7.9855
BaAlBO3F2,mp-10510,P6_3/m,hexagonal,6.6464
NaYPO4F,mp-10804,C2/m,monoclinic,5.9007
SiO2,mp-10851,P6_422,hexagonal,5.6725
SiO2,mp-10948,Pbcn,orthorhombic,5.8183
CO2,mp-11725,P4_12_12,tetragonal,6.729
CO,mp-11875,P2_13,cubic,5.8101
MgSiO3,mp-5924,R-3,rhombohedral,6.3883
NaAl(SiO3)2,mp-6124,C2/c,monoclinic,5.6828
Na2MgAlF7,mp-6319,Imma,orthorhombic,7.0658
CaAlSiO4F,mp-6873,C2/c,monoclinic,5.6051
SiO2,mp-6922,P6_222,hexagonal,5.6725
SiO2,mp-6945,P4_12_12,tetragonal,5.7383
SiO2,mp-6947,P4_2/mnm,tetragonal,5.5724
SiO2,mp-7000,P3_121,hexagonal,5.9852
SiO2,mp-7087,P6_3/mmc,hexagonal,5.3089
NdAl3(BO3)4,mp-7337,R32,rhombohedral,5.3901
BeO,mp-7599,P4_2/mnm,tetragonal,7.6053
NaAlF4,mp-7723,P4/mmm,tetragonal,6.0595
AlF3,mp-8039,Pm-3m,cubic,7.8033
AlBO3,mp-8110,R-3c,rhombohedral,6.0732
SiO2,mp-8352,Fd-3m,cubic,5.3171
K2HfF6,mp-8414,Fm-3m,cubic,7.48
KF,mp-8454,Pm-3m,cubic,7.1109
NaAlPO4F,mp-8678,C2/c,monoclinic,5.9431
KRb2ScF6,mp-9348,I4/m,tetragonal,6.9856
KRb2ScF6,mp-9349,Fm-3m,cubic,6.8718
U2Cr3Si,mp-9394,P6_3/mmc,hexagonal,0.0013
V4SiSb2,mp-9398,I4/mcm,tetragonal,0.001
Al2SiO5,mp-9515,C2/c,monoclinic,6.1094
Al2SiO5,mp-9516,Cmcm,orthorhombic,5.893
SmF3,mp-18690,P6_3/mcm,hexagonal,5.6037
Cr2NiO4,mp-19303,P1,triclinic,0.0043
AlWO4,mp-19413,C2/m,monoclinic,1.2115
Ba2YbNbO6,mp-19751,Fm-3m,cubic,3.3964
Fe11Si5,mp-19800,Pm-3m,cubic,0.0084
MnCoSi,mp-19809,Pnma,orthorhombic,0.0002
Sr2PrO4,mp-19975,Pbam,orthorhombic,3.9598
CaTbF6,mp-20154,P4_2/m,tetragonal,8.1591
UWC2,mp-20270,Pnma,orthorhombic,0.002
U3Co2Ge7,mp-20447,Cmmm,orthorhombic,0.0008
U3Te4,mp-20520,R3c,rhombohedral,0.0063
V2P,mp-20541,Pnma,orthorhombic,0.0039
K2Cd(CN)4,mp-20623,Fd-3m,cubic,6.0256
PbO2,mp-20633,Pbcn,orthorhombic,0.2652
U(MnAl2)4,mp-20704,I4/mmm,tetragonal,0.0007
Fe2N,mp-21476,Pbcn,orthorhombic,0.0027
Rb4CdBr6,mp-28315,R-3c,rhombohedral,3.212
TlBS3,mp-28809,P2_1/c,monoclinic,1.6921
Cd4OF6,mp-28855,P4_2/nmc,tetragonal,1.9843
K2HgS2,mp-28859,Pbcm,orthorhombic,2.0639
BaReH9,mp-28911,P6_3/mmc,hexagonal,3.7585
Cd(AuF4)2,mp-29169,P4/mcc,tetragonal,1.9082
Na3BP2,mp-29370,P2_1/c,monoclinic,1.9708
SbCl3F2,mp-29391,I-4,tetragonal,1.606
K2TeS3,mp-29692,P2_1/c,monoclinic,2.1268
Sr4PdO6,mp-29775,R-3c,rhombohedral,1.602
Ag2HgO2,mp-29816,P4_32_12,tetragonal,0.0799
LiSb3O8,mp-29892,P2_1/c,monoclinic,1.1171
Sr4I6O,mp-29910,P6_3mc,hexagonal,4.0416
Pb7(BrF6)2,mp-29927,P-6,hexagonal,4.16
Rb6Br4O,mp-30005,R-3c,rhombohedral,1.6279
MgB9N,mp-30091,R-3m,rhombohedral,1.777
Rb3Os2Br9,mp-30167,P6_3/mmc,hexagonal,0.0782
Li3AlH6,mp-31096,R-3,rhombohedral,3.9276
Sm3GaO6,mp-31110,Cmc2_1,orthorhombic,3.7296
Tb3GaO6,mp-31112,Cmc2_1,orthorhombic,3.7138
TbScO3,mp-31119,Pnma,orthorhombic,4.442
HoScO3,mp-31121,Pnma,orthorhombic,4.4805
BiBO3,mp-31250,P2_1/c,monoclinic,3.0339
TaGaO4,mp-33508,Pna2_1,orthorhombic,3.1958
Dy2Ti2O7,mp-34322,Fd-3m,cubic,2.747
Sm2Hf2O7,mp-35249,Fd-3m,cubic,3.8097
Li5GaO4,mp-37207,P4_22_12,tetragonal,3.8821
Li4Fe3O8,mp-775127,R-3m,rhombohedral,0.0027
AgPO3,mp-775762,P2_1/c,monoclinic,2.1377
SrNb3NO7,mp-775922,Cm,monoclinic,1.5138
Ge3Sb2O9,mp-17708,P6_3/m,hexagonal,3.0368
UTe3,mp-22231,Cmcm,orthorhombic,0.0008
InTeI,mp-29234,P2_1/c,monoclinic,1.4271
CuTe2Cl,mp-30971,P2_1/c,monoclinic,0.0486
BaSb2F12,mp-554765,P1,triclinic,4.6045
HgI2,mp-567471,C2,monoclinic,1.0453