formula,mpid,space group,bravais lattice,gap opt
TmTaOs2,mp-865270,Fm-3m,cubic,0.0127
NbAlOs2,mp-865278,Fm-3m,cubic,0.1325
NbAlFe2,mp-865280,Fm-3m,cubic,0.0181
Tm2AgRu,mp-865282,Fm-3m,cubic,0.0014
Tm2AlOs,mp-865283,Fm-3m,cubic,0.0335
Ho2InAg,mp-865297,Fm-3m,cubic,0.003
Tm2CoOs,mp-865303,Fm-3m,cubic,0.0058
UO2,mp-865305,P4_2/mnm,tetragonal,0.001
Tm2CuOs,mp-865306,Fm-3m,cubic,0.0114
Tm2CoIr,mp-865309,Fm-3m,cubic,0.0193
Lu2PdRu,mp-865320,Fm-3m,cubic,0.0052
Lu2NiRu,mp-865335,Fm-3m,cubic,0.0028
Lu2OsPd,mp-865336,Fm-3m,cubic,0.0152
Lu2NiIr,mp-865337,Fm-3m,cubic,0.0025
Tm2ZnPt,mp-865338,Fm-3m,cubic,0.0038
Tm2InOs,mp-865341,Fm-3m,cubic,0.0368
Tm2ZnRu,mp-865351,Fm-3m,cubic,0.0167
Tm2IrPd,mp-865354,Fm-3m,cubic,0.0042
DySnRu2,mp-865358,Fm-3m,cubic,0.0298
Zn3Ir,mp-865362,I4/mmm,tetragonal,0.0054
DyTaRu2,mp-865364,Fm-3m,cubic,0.0101
Tm2NiIr,mp-865365,Fm-3m,cubic,0.0112
YbCd3,mp-865366,Fm-3m,cubic,0.0161
Tm2OsAu,mp-865369,Fm-3m,cubic,0.0135
Tm2OsPd,mp-865374,Fm-3m,cubic,0.0148
Tm2PdPt,mp-865380,Fm-3m,cubic,0.0052
Tm2IrRu,mp-865381,Fm-3m,cubic,0.0071
V3Ru,mp-865382,Fm-3m,cubic,0.0012
Tm2OsRu,mp-865383,Fm-3m,cubic,0.0559
KSrCO3F,mp-865427,P-6m2,hexagonal,4.1868
YbZnAu2,mp-865431,Fm-3m,cubic,0.0129
Lu2AgHg,mp-865446,Fm-3m,cubic,0.0054
Lu2AgRu,mp-865459,Fm-3m,cubic,0.0135
MnV2Os,mp-865462,Fm-3m,cubic,0.0008
YAlAg2,mp-865504,Fm-3m,cubic,0.0233
TiInCo2,mp-865548,Fm-3m,cubic,0.0485
YBr3,mp-865605,P6_3/mmc,hexagonal,2.5145
LuGaPd2,mp-865607,Fm-3m,cubic,0.0113
Lu2IrRh,mp-865623,Fm-3m,cubic,0.0322
Ti2CoIr,mp-861639,Fm-3m,cubic,0.0043
HoInPd2,mp-861654,Fm-3m,cubic,0.0036
Li2PrAl,mp-861657,Fm-3m,cubic,0.0743
TaTlO3,mp-861873,Pm-3m,cubic,0.9299
LiDyHg2,mp-861886,Fm-3m,cubic,0.0018
CdGaRh2,mp-861909,Fm-3m,cubic,0.0921
Ir2S3,mp-861979,R-3c,rhombohedral,1.1113
Cu2PdAu,mp-862256,Fm-3m,cubic,0.0214
Sc2ZnAu,mp-862257,Fm-3m,cubic,0.0038
ScZn3,mp-862260,P6_3/mmc,hexagonal,0.0036
Sc2ZnTc,mp-862264,Fm-3m,cubic,0.0049
Sc2GaOs,mp-862300,Fm-3m,cubic,0.0286
Sc2IrPd,mp-862336,Fm-3m,cubic,0.002
Sc2CuRu,mp-862338,Fm-3m,cubic,0.0241
Sc2NiIr,mp-862360,Fm-3m,cubic,0.0063
Sc2PdPt,mp-862363,Fm-3m,cubic,0.0038
Sc2OsPt,mp-862364,Fm-3m,cubic,0.0032
Sc2PdRu,mp-862370,Fm-3m,cubic,0.0108
ScS2,mp-862373,P4_2/mnm,tetragonal,0.0342
Sc2AgOs,mp-862431,Fm-3m,cubic,0.01
TaAlOs2,mp-862445,Fm-3m,cubic,0.0415
GaCuRh2,mp-862485,Fm-3m,cubic,0.0119
LiEr2Al,mp-862493,R-3m,rhombohedral,0.0224
Sc2AlRu,mp-862546,Fm-3m,cubic,0.0269
Sc2AlZn,mp-862548,Fm-3m,cubic,0.0017
LiY2Al,mp-862555,Fm-3m,cubic,0.0428
LiEr2Os,mp-862558,Fm-3m,cubic,0.0125
ScSbRu2,mp-862561,Fm-3m,cubic,0.0408
ScBr2,mp-862565,P4_2/mnm,tetragonal,0.0016
ScAlCo2,mp-862602,Fm-3m,cubic,0.0142
Er2NiRu,mp-862615,Fm-3m,cubic,0.0024
LiErIn2,mp-862619,Fm-3m,cubic,0.0061
BeRu2W,mp-862622,Fm-3m,cubic,0.018
LiCa2Al,mp-862632,Fm-3m,cubic,0.0187
ScSbRh2,mp-862635,Fm-3m,cubic,0.0374
Rb2Zr2O5,mp-862664,P4/mmm,tetragonal,1.8848
LiY2Ru,mp-862673,Fm-3m,cubic,0.0379
AlZnIr2,mp-862705,Fm-3m,cubic,0.0046
Be3Ir,mp-862714,I4/mmm,tetragonal,0.0021
Sr2LiTl,mp-862746,Fm-3m,cubic,0.0346
SmAlAg2,mp-862749,Fm-3m,cubic,0.0124
PrBS3,mp-862754,Pna2_1,orthorhombic,2.4984
AlCrRu2,mp-862781,Fm-3m,cubic,0.0192
Er2ZnIr,mp-862789,Fm-3m,cubic,0.0145
PaSnPd2,mp-862822,Fm-3m,cubic,0.0041
PaZnRu2,mp-862843,Fm-3m,cubic,0.0673
KPAuSe3,mp-862850,C2/m,monoclinic,0.948
PbCl2,mp-862871,P4_2/mnm,tetragonal,3.114
Ba3Ti3(BO6)2,mp-11772,P-62m,hexagonal,2.1716
HgB4O7,mp-12022,Pmn2_1,orthorhombic,1.8268
Mg(AuF4)2,mp-8708,P2_1/c,monoclinic,2.0345
Y2S2O,mp-8869,P2_1/c,monoclinic,2.5674
Tb2S3,mp-9323,Pnma,orthorhombic,0.2472
SrPS3,mp-9788,P2_1/c,monoclinic,3.1888
CaPS3,mp-9789,P2_1/c,monoclinic,3.128
SnB4O7,mp-13252,Pmn2_1,orthorhombic,3.7536
Ho3ScO6,mp-13840,R-3,rhombohedral,4.5987
SnPS3,mp-13923,Pc,monoclinic,1.9425
K2Na4Be2O5,mp-14324,P4_2/mnm,tetragonal,2.7695
Pr2Be2GeO7,mp-14415,P-42_1m,tetragonal,4.382
Sm2Be2GeO7,mp-14416,P-42_1m,tetragonal,4.5643
Er2Be2GeO7,mp-14420,P-42_1m,tetragonal,4.5871
TiCdO3,mp-14550,Pnma,orthorhombic,2.1425
Sm2Se3,mp-15081,Pnma,orthorhombic,0.2382
K3Nb3(BO6)2,mp-15248,P-62m,hexagonal,1.9835
GaN,mp-1007824,P6_3/mmc,hexagonal,1.1634
VTe2,mp-1008626,P-3m1,hexagonal,0.0035
TiS2,mp-1008682,I4/mmm,tetragonal,0.0001
CoTe2,mp-1009641,P-3m1,hexagonal,0.0018
PbS,mp-1012435,Cmc2_1,orthorhombic,0.274
Cr3N2,mp-1014509,P321,hexagonal,0.0001
In2Se3,mp-1017565,C2/m,monoclinic,0.1922
Mg2ZnAs2,mp-1017630,P-3m1,hexagonal,1.0627
PbS,mp-1018115,Cmcm,orthorhombic,1.2002
VI2,mp-1018138,P-3m1,hexagonal,0.004
GaP,mp-1018275,R-3m,rhombohedral,1.0632
CN2,mp-1018655,P-3m1,hexagonal,2.0164
MoSe2,mp-1018807,P6_3/mmc,hexagonal,0.9418
MoS2,mp-1018809,P6_3/mmc,hexagonal,0.958
PdCl2,mp-1018891,P2_1/c,monoclinic,0.1101
CN2,mp-1019086,P-42_1m,tetragonal,4.7438
Te2W,mp-1019322,P6_3/mmc,hexagonal,0.8919
B2S2O9,mp-1019509,C2,monoclinic,7.1219
K2Mg2Si2O7,mp-1019779,P-31m,hexagonal,5.4765
SiO2,mp-1021503,Pn-3m,cubic,5.1164
CdS,mp-1021511,P3m1,hexagonal,0.8868
YFe2Bi2(SeO2)2,mp-1022730,I4/mmm,tetragonal,0.0026
SiS,mp-1023900,Pmna,orthorhombic,0.1582
WS2,mp-1023925,P-3m1,hexagonal,0.945
Te2W,mp-1023926,P-6m2,hexagonal,1.2853
MoWSe4,mp-1023928,Cm,monoclinic,1.1593
WSeS,mp-1023929,P3m1,hexagonal,0.7035
WSe2,mp-1023933,P-3m1,hexagonal,1.2188
Te2Mo,mp-1023935,P-6m2,hexagonal,1.2284
WSe2,mp-1023936,P-6m2,hexagonal,1.3336
MoS2,mp-1023939,P-3m1,hexagonal,1.2069
Te2W,mp-1023942,P-3m1,hexagonal,0.9517
TeWSe,mp-1023943,P3m1,hexagonal,0.1471
MoW(SeS)2,mp-1023955,P3m1,hexagonal,0.5842
CdIBr,mp-1025115,R3m,rhombohedral,2.0555
Mn(NbS2)2,mp-1025312,P-3m1,hexagonal,0.0121
Cu2WSe4,mp-1025340,I-42m,tetragonal,0.917
YbCl3,mp-1025400,Cmcm,orthorhombic,0.0127
IrI3,mp-1025442,C2/m,monoclinic,1.1785
LuTe3,mp-1025470,Cmcm,orthorhombic,0.0019
ThTe3,mp-1025522,P2_1/m,monoclinic,0.0505
WS2,mp-1025571,P3m1,hexagonal,0.8253
WSe2,mp-1025572,P-6m2,hexagonal,1.1257
Te2W,mp-1025573,P-6m2,hexagonal,0.9654
Te2Mo(WSe2)2,mp-1025574,P-6m2,hexagonal,0.7377
Mo(WSe3)2,mp-1025575,P-6m2,hexagonal,1.1396
Te2Mo,mp-1025576,P-6m2,hexagonal,1.135
Te2W3(SeS)2,mp-1025578,P3m1,hexagonal,0.0418
Te2Mo(WSe2)2,mp-1025583,P3m1,hexagonal,0.1377
W3(SeS2)2,mp-1025584,P-6m2,hexagonal,0.6921
Te4Mo(WSe)2,mp-1025585,P-6m2,hexagonal,0.1657
Te2W3S4,mp-1025586,P3m1,hexagonal,0.0003
Te4W3S2,mp-1025587,P3m1,hexagonal,0.0075
W3(Se2S)2,mp-1025588,P-6m2,hexagonal,0.526
MoW2(Se2S)2,mp-1025589,P-6m2,hexagonal,0.2885
Te4Mo2WSe2,mp-1025626,P3m1,hexagonal,0.1657
Te2W3(SeS)2,mp-1025637,P3m1,hexagonal,0.0042
Te4Mo2WS2,mp-1025654,P-6m2,hexagonal,0.0026
MoW2(Se2S)2,mp-1025656,P3m1,hexagonal,0.6055
Te2Mo2WSe4,mp-1025668,P3m1,hexagonal,0.137
Te4Mo2WSe2,mp-1025675,P-6m2,hexagonal,0.115
Te6MoW2,mp-1025678,P3m1,hexagonal,0.8695
MoW2(SeS2)2,mp-1025716,P3m1,hexagonal,0.687
Te2MoW2(SeS)2,mp-1025722,P3m1,hexagonal,0.0039
Te4Mo(WSe)2,mp-1025732,P3m1,hexagonal,0.1995
Te4Mo2WS2,mp-1025743,P3m1,hexagonal,0.0877
Te2MoW2(SeS)2,mp-1025747,P3m1,hexagonal,0.0038
Mo2W(Se2S)2,mp-1025748,P-6m2,hexagonal,0.5455
Te2MoW2(SeS)2,mp-1025768,P3m1,hexagonal,0.0092
Te4Mo2WSe2,mp-1025781,P3m1,hexagonal,0.2022
Mo(WSe3)2,mp-1025787,P3m1,hexagonal,0.9856
Te2Mo(WS2)2,mp-1025806,P3m1,hexagonal,0.0616
MoW2(Se2S)2,mp-1025816,P3m1,hexagonal,0.4764
Mo3(Se2S)2,mp-1025819,P-6m2,hexagonal,0.3821
MoW2(SeS2)2,mp-1025824,P3m1,hexagonal,0.5994
Te2MoW2(SeS)2,mp-1025856,P3m1,hexagonal,0.0096
Mo2W(Se2S)2,mp-1025866,P3m1,hexagonal,0.2862
MoW2(Se2S)2,mp-1025870,P3m1,hexagonal,0.2885
Te2MoW2(SeS)2,mp-1025895,P3m1,hexagonal,0.0106
Te2Mo(WS2)2,mp-1025898,P3m1,hexagonal,0.0066
Mo3(Se2S)2,mp-1025906,P3m1,hexagonal,0.382
MoW2(SeS2)2,mp-1025917,P3m1,hexagonal,0.6258
MoW2(SeS2)2,mp-1025919,P3m1,hexagonal,0.6181
Te2Mo2WS4,mp-1025923,P3m1,hexagonal,0.0045
Te2Mo2WS4,mp-1025926,P3m1,hexagonal,0.0015
Te2Mo2W(SeS)2,mp-1025933,P3m1,hexagonal,0.2108
Te4Mo3S2,mp-1025937,P3m1,hexagonal,0.1637
Mo2W(SeS2)2,mp-1025941,P3m1,hexagonal,0.6373
Te2Mo3S4,mp-1025986,P-6m2,hexagonal,0.0809
Te2Mo3S4,mp-1026020,P3m1,hexagonal,0.0617
Te2W3(SeS)2,mp-1026347,P3m1,hexagonal,0.0031
Te2W3Se4,mp-1026348,P3m1,hexagonal,0.7777
Te4W3Se2,mp-1026350,P3m1,hexagonal,0.1973
Te4Mo(WS)2,mp-1026352,P-6m2,hexagonal,0.0876
Te4W3Se2,mp-1026356,P-6m2,hexagonal,0.199
Te4W3S2,mp-1026362,P-6m2,hexagonal,0.0016
MoW(SeS)2,mp-1026911,P3m1,hexagonal,0.5725
Te2Mo3W(SeS2)2,mp-1026917,P3m1,hexagonal,0.0146
TeMo2SeS2,mp-1026933,P3m1,hexagonal,0.0373
Te2Mo3W(Se2S)2,mp-1027149,P3m1,hexagonal,0.2077
Te2MoWSeS,mp-1027170,P3m1,hexagonal,0.2053
MoWS4,mp-1027269,P-3m1,hexagonal,0.7786
MoW3S8,mp-1027273,P3m1,hexagonal,0.9937
Te4Mo3WS4,mp-1027352,P3m1,hexagonal,0.0007
Te2MoWS2,mp-1027375,P3m1,hexagonal,0.0007
Te2Mo3WS6,mp-1027379,P3m1,hexagonal,0.0016
Mo3W(Se3S)2,mp-1027549,P3m1,hexagonal,0.2936
TeMo2SeS2,mp-1027579,P3m1,hexagonal,0.0262
TeMoWSeS2,mp-1027609,P3m1,hexagonal,0.0607
Te2Mo3WSe6,mp-1027658,P3m1,hexagonal,0.1917
Te2Mo3WSe6,mp-1027711,P3m1,hexagonal,0.1041
Mo3W(SeS)4,mp-1027714,P3m1,hexagonal,0.5936
Te2Mo3WS6,mp-1027780,P3m1,hexagonal,0.0838
Mo3W(SeS3)2,mp-1027795,P3m1,hexagonal,0.7041
TeMo2Se2S,mp-1027801,P3m1,hexagonal,0.2126
Te2Mo3WS6,mp-1027916,P3m1,hexagonal,0.0064
Te2Mo3W(SeS2)2,mp-1027980,P3m1,hexagonal,0.0824
WS2,mp-1028441,P-3m1,hexagonal,0.7806
Te2W2SeS,mp-1028445,P3m1,hexagonal,0.107
Te2MoWS2,mp-1028483,P-3m1,hexagonal,0.1633
Te2MoW3(SeS2)2,mp-1028535,P3m1,hexagonal,0.028
Te8MoW3,mp-1028576,P3m1,hexagonal,0.9127
TeWSe,mp-1028589,P-3m1,hexagonal,0.2849
Te4MoW,mp-1028594,P-3m1,hexagonal,0.8863
Te3MoWS,mp-1028643,P3m1,hexagonal,0.0855
WSeS,mp-1028663,P-3m1,hexagonal,0.5209
TeW2SeS2,mp-1028669,P3m1,hexagonal,0.0006
TeW2Se2S,mp-1028704,P3m1,hexagonal,0.0134
Te2MoW3(Se2S)2,mp-1028728,P3m1,hexagonal,0.0161
TeW2Se2S,mp-1028729,P3m1,hexagonal,0.0029
WSeS,mp-1028764,P3m1,hexagonal,0.5594
Te2MoW3(Se2S)2,mp-1028765,P3m1,hexagonal,0.2118
TeW2Se2S,mp-1028821,P3m1,hexagonal,0.0124
MoW3Se8,mp-1028823,P3m1,hexagonal,1.0669
TeW2Se2S,mp-1028887,P3m1,hexagonal,0.0355
Te2MoW3(Se2S)2,mp-1028911,P3m1,hexagonal,0.004
TeMoWSe2S,mp-1028939,P3m1,hexagonal,0.0089
Te2Mo(WS2)3,mp-1028999,P3m1,hexagonal,0.0009
Te2MoW3(SeS2)2,mp-1029044,P3m1,hexagonal,0.0029
Te2MoW3(SeS2)2,mp-1029113,P3m1,hexagonal,0.0658
Te4MoW3(SeS)2,mp-1029145,P3m1,hexagonal,0.0162
Te2MoWSeS,mp-1029213,P3m1,hexagonal,0.0101
MoW3(SeS3)2,mp-1029232,P3m1,hexagonal,0.7374
Te2Mo(WS2)3,mp-1029248,P3m1,hexagonal,0.001
Te6MoW3Se2,mp-1029255,P3m1,hexagonal,0.2163
Te2MoWSe2,mp-1029259,P-3m1,hexagonal,0.1383
Te2Mo(WSe2)3,mp-1029421,P3m1,hexagonal,0.7191
Te2MoWSeS,mp-1029945,P3m1,hexagonal,0.0357
Te4MoW3(SeS)2,mp-1030128,P3m1,hexagonal,0.0801
Te2MoWS2,mp-1030196,P3m1,hexagonal,0.0801
Te2MoWSeS,mp-1030201,P3m1,hexagonal,0.0907
Te4Mo3WS4,mp-1030240,P3m1,hexagonal,0.0076
Te6Mo3WS2,mp-1030281,P3m1,hexagonal,0.0863
Te2Mo,mp-1030319,P-3m1,hexagonal,0.7834
Te3MoWS,mp-1030353,P3m1,hexagonal,0.0921
TeMoWSe2S,mp-1030516,P3m1,hexagonal,0.166
MoWSe3S,mp-1030522,P3m1,hexagonal,0.551
MoW(SeS)2,mp-1030524,P3m1,hexagonal,0.5853
MoW3(SeS)4,mp-1030536,P3m1,hexagonal,0.5574
MoWSe4,mp-1030565,P3m1,hexagonal,1.0553
MoW3(Se3S)2,mp-1030567,P3m1,hexagonal,0.4841
Te2MoW3(Se2S)2,mp-1030568,P3m1,hexagonal,0.0389
Te4Mo3W(SeS)2,mp-1030576,P3m1,hexagonal,0.0078
Te2MoWSeS,mp-1030596,P3m1,hexagonal,0.0037
Te3MoWSe,mp-1030682,P3m1,hexagonal,0.1649
Te2Mo3WSe6,mp-1030722,P3m1,hexagonal,0.1602
Te2Mo3W(Se2S)2,mp-1030827,P3m1,hexagonal,0.1473
PPbSe3,mp-20316,P2_1/c,monoclinic,1.7485
BiTe,mp-23224,P-3m1,hexagonal,0.0241
I2O5,mp-23261,P2_1/c,monoclinic,2.6939
CdP2(HO)4,mp-24316,C2/c,monoclinic,4.5476
Mg3P2(HO)16,mp-24638,C2/m,monoclinic,5.3788
AsO2,mp-27356,Pnma,orthorhombic,3.5836
Sb4Br2O5,mp-27700,P2_1/c,monoclinic,2.4771
USeO5,mp-27723,P2_1/m,monoclinic,2.0192
Th6CoBr15,mp-28167,Im-3m,cubic,0.0562
Hg2P3Br,mp-28874,Pbcn,orthorhombic,0.9577
ZrPb3F10,mp-29232,Cmcm,orthorhombic,4.7949
Te3SeO8,mp-29320,P-1,triclinic,2.7929
Bi2SeO5,mp-29839,Aem2,orthorhombic,2.9112
Cd(CN)2,mp-34656,P4_2nm,tetragonal,5.4926
Zn(CN)2,mp-35751,P4_2nm,tetragonal,5.8964
Mg(CN)2,mp-36940,P4_2nm,tetragonal,6.2468
Cd(CN)2,mp-4077,P-43m,cubic,6.1505
TbHO2,mp-504474,Pmmn,orthorhombic,4.8402
InTeCl,mp-504630,P2_1/c,monoclinic,1.5513
CeP3H8O7,mp-505610,P-1,triclinic,0.3336
V2O5,mp-510568,P2_1/m,monoclinic,1.3889
TlCuPO4,mp-541201,C2/c,monoclinic,0.0028
Nb(SeBr)2,mp-541667,P-1,triclinic,0.9122
P2Pb3O8,mp-542152,C2/c,monoclinic,3.655
SnO,mp-545552,Pmn2_1,orthorhombic,1.9226
AgCNO,mp-545730,Pmmn,orthorhombic,1.3709
PbO,mp-550714,Pca2_1,orthorhombic,2.2942
TiZn(BiO3)2,mp-550998,P4mm,tetragonal,1.6894
Al(HO)3,mp-554002,P1,triclinic,5.3262
MgSiO3,mp-554137,P2_1/c,monoclinic,4.1107
CuBiSCl2,mp-554238,Cmcm,orthorhombic,0.0981
VF4,mp-554799,P2_1/c,monoclinic,0.0007
Y2Te5O13,mp-554852,P-1,triclinic,3.0525
Al(HO)3,mp-554883,P-1,triclinic,5.4063
Hg(BiS2)2,mp-554921,P-1,triclinic,1.0418
Tm2Te5O13,mp-555236,P-1,triclinic,3.0285
TcO3F,mp-555390,P2_1/c,monoclinic,2.5742
Al(HO)3,mp-555462,P-1,triclinic,5.5231
MgH6(CO3)2,mp-556127,Pbca,orthorhombic,4.9629
In2GaBiS6,mp-556231,P2_1/m,monoclinic,1.7903
CdSbS2Cl,mp-557049,Pnma,orthorhombic,1.706
Sm2Ti3(BiO6)2,mp-557438,I4/mmm,tetragonal,2.056
CdHg4C6S6(Br2N3)2,mp-557580,Fmm2,orthorhombic,1.5679
TlSbO3,mp-557787,P-31c,hexagonal,2.3795
Si3Bi2O9,mp-558672,P6_3/m,hexagonal,3.4874
BiTeIO3,mp-559332,P2_1/c,monoclinic,2.366
Hg3AsS4Cl,mp-559355,P6_3mc,hexagonal,1.3336
AgPbBrO,mp-559470,P4/nmm,tetragonal,0.208
CdSbS2Br,mp-559588,C2/m,monoclinic,1.6293
SnS,mp-559676,Cmcm,orthorhombic,0.1737
InSb2S4Br,mp-559864,C2/m,monoclinic,1.5492
LuSBr,mp-560054,Pmmn,orthorhombic,2.8545
Al(HO)3,mp-560196,P2_1/c,monoclinic,5.7382
Ge(PbS2)2,mp-560370,P2_1/c,monoclinic,1.973
AuSeClO3,mp-560549,P-1,triclinic,1.3454
Sb2O3,mp-560607,Pmmn,orthorhombic,1.4492
Zn2In2S5,mp-560806,P6_3mc,hexagonal,0.4807
CdBiS2Br,mp-561079,C2/m,monoclinic,1.7816
PbS,mp-561320,C2,monoclinic,1.8162
CuCClO,mp-562090,Pmn2_1,orthorhombic,2.2956
PbI2,mp-567178,P3m1,hexagonal,2.2518
PbI2,mp-567246,P3m1,hexagonal,2.277
CdI2,mp-567296,P-3m1,hexagonal,2.1079
CdI2,mp-567336,P-3m1,hexagonal,2.1419
CdI2,mp-567359,P-3m1,hexagonal,2.1893
CdI2,mp-567442,P-3m1,hexagonal,2.1912
PbI2,mp-567503,P6_3mc,hexagonal,2.2592
PbI2,mp-567542,P6_3mc,hexagonal,2.2491
CdSb2Se3Br2,mp-567556,C2/m,monoclinic,1.1071
HgB2(CN)8,mp-567699,P-3m1,hexagonal,4.4681
C3N4,mp-567885,P-6m2,hexagonal,1.4346
GaSe,mp-568263,P6_3mc,hexagonal,0.3297
BiBr3,mp-568301,C2/m,monoclinic,2.6895
HfBrN,mp-568346,Pmmn,orthorhombic,2.2041
CuB2(CN)8,mp-568532,C2/m,monoclinic,3.6648
HgI2,mp-568742,P4_2/nmc,tetragonal,1.107
Bi2Te5Pb2,mp-569044,P-3m1,hexagonal,0.0319
BiI3,mp-569157,P-31m,hexagonal,2.1641
MgCl2,mp-569626,Ama2,orthorhombic,3.7105
BN,mp-569655,P2_1/c,monoclinic,3.8221
ZnSe,mp-569679,P4/nmm,tetragonal,1.5392
ZnBr2,mp-569960,R-3m,rhombohedral,3.0939
CdI2,mp-569994,P6_3mc,hexagonal,2.175
CuI,mp-570136,P3m1,hexagonal,1.6481
AgAuCl4,mp-570340,C2/c,monoclinic,0.0911
YbI2,mp-570418,P-3m1,hexagonal,3.7025
CdI2,mp-570437,P3m1,hexagonal,2.2436
CdI2,mp-570472,P3m1,hexagonal,2.1707
CdI2,mp-570511,P3m1,hexagonal,2.1904
CdI2,mp-570559,P3m1,hexagonal,2.2058
C3N4,mp-570572,R3m,rhombohedral,1.3018
CdI2,mp-570695,P3m1,hexagonal,2.172
SnPSe3,mp-5706,P2_1/c,monoclinic,1.2882
MgCl2,mp-570782,P-1,triclinic,4.652
HgCN2,mp-570848,P2_1/c,monoclinic,1.9942
MgCl2,mp-570922,P-4m2,tetragonal,5.0662
Bi2Pb2Se5,mp-570930,P-3m1,hexagonal,0.1469
CdI2,mp-570939,P3m1,hexagonal,2.2247
ZnI2,mp-570964,R-3m,rhombohedral,1.6942
CdI2,mp-571037,P3m1,hexagonal,2.1881
TiBr3,mp-571065,R-3,rhombohedral,0.0029
CdI2,mp-571091,P3m1,hexagonal,2.1957
CdI2,mp-571197,P3m1,hexagonal,2.2106
AgN3,mp-571297,I4/mcm,tetragonal,1.8995
TiCl3,mp-571424,P-1,triclinic,0.0048
CdI2,mp-571568,P3m1,hexagonal,2.1845
CdI2,mp-571592,P3m1,hexagonal,2.2088
TePdI2,mp-573321,P-1,triclinic,0.0364
Re3Se4Cl,mp-580748,P-1,triclinic,1.1052
AgI,mp-580941,P6_3mc,hexagonal,1.4112
In2Te5,mp-582549,P1,triclinic,0.0286
Zn(BH4)2,mp-604315,Pmc2_1,orthorhombic,4.3711
Pb2O3,mp-608439,P2_1/m,monoclinic,0.8675
HgC2(SN)2,mp-610992,P1,triclinic,2.0911
PbClF,mp-613652,P4/nmm,tetragonal,3.8565
PbCN2,mp-619032,Pna2_1,orthorhombic,1.7705
GePbS3,mp-624190,P2_1/c,monoclinic,1.6579
CdInGaS4,mp-624929,P3m1,hexagonal,0.0198
AlHO2,mp-625054,Cmc2_1,orthorhombic,5.6147
Ni(HO)2,mp-625072,P3m1,hexagonal,0.0003
AlHO2,mp-625075,P1,triclinic,4.7165
ScHO2,mp-625150,Cmc2_1,orthorhombic,4.3975
Al(HO)3,mp-625316,P-1,triclinic,5.2798
Al(HO)3,mp-625318,P1,triclinic,5.3263
Al(HO)3,mp-625320,P-1,triclinic,5.5224
AlHO2,mp-625420,Pnma,orthorhombic,5.2062
Zn(HO)2,mp-625487,P-3m1,hexagonal,2.6661
Zn(HO)2,mp-625488,C2,monoclinic,2.6649
Te(HO2)2,mp-625513,P2_1/c,monoclinic,1.7345
Te(HO2)2,mp-625526,Pc,monoclinic,1.7172
Cd(HO)2,mp-625548,P-3m1,hexagonal,1.7947
Cd(HO)2,mp-625557,P3m1,hexagonal,1.2317
Cd(HO)2,mp-625565,C2,monoclinic,1.795
TeHO3,mp-625630,Pna2_1,orthorhombic,2.3002
Al(HO)3,mp-625762,P1,triclinic,5.24
Mg(HO)2,mp-626143,C2,monoclinic,4.6372
Al(HO)3,mp-626414,P-1,triclinic,5.337
Al(HO)3,mp-626431,P1,triclinic,5.4077
Al(HO)3,mp-626435,P1,triclinic,5.3368
Al(HO)3,mp-626497,Cm,monoclinic,5.4076
Al(HO)3,mp-626500,P1,triclinic,5.3227
Al(HO)3,mp-626504,P1,triclinic,5.4074
Mo2H2O7,mp-626813,P2_1,monoclinic,2.2005
Ni(HO)2,mp-626843,C2,monoclinic,0.0009
AgSbS2,mp-627601,Cc,monoclinic,0.2069
SnSe,mp-628773,Cmcm,orthorhombic,0.0279
BN,mp-629015,P6_3/mmc,hexagonal,3.6547
CdInGaS4,mp-630773,P-3m1,hexagonal,0.5788
CdCl2,mp-632403,P1,triclinic,2.8231
ZrNCl,mp-632657,P-3m1,hexagonal,3.018
ZrP2(HO3)2,mp-643013,P-3,hexagonal,4.5022
GaH3NF3,mp-643759,Aem2,orthorhombic,5.4122
CdHClO,mp-644222,P6_3mc,hexagonal,2.5035
ZrNCl,mp-672350,P-3m1,hexagonal,1.4183
Sn3(P2O7)2,mp-673118,P-1,triclinic,3.0062
Ba2Bi6O11,mp-674537,C2/m,monoclinic,1.219
InPF3,mp-675295,R3,rhombohedral,0.0969
NdPb4F11,mp-675342,Cm,monoclinic,4.6225
Cd2Bi6O11,mp-675654,P1,triclinic,1.0593
Ag3SI,mp-676121,P1,triclinic,0.1029
TaOF3,mp-677065,P1,triclinic,3.1387
CdI2,mp-680111,P3m1,hexagonal,2.1959
VCo3,mp-680599,P6/mmm,hexagonal,0.0031
BiF3,mp-685136,P6_3/mmc,hexagonal,5.3771
BN,mp-685145,Fmm2,orthorhombic,3.6866
Nb2SiTe4,mp-690578,P1,triclinic,0.0025
ZnH4(ClO3)2,mp-690650,P2_1/c,monoclinic,2.8203
Ag2H2IOF,mp-690687,P2_1,monoclinic,1.0484
CdCl2,mp-695850,P-1,triclinic,3.3986
ZnP2(HO)4,mp-697451,Pmma,orthorhombic,4.1674
Mg5H8O9,mp-697921,P-3m1,hexagonal,4.0941
MoO3,mp-715474,Pc,monoclinic,1.15
InH5(NF)2,mp-733932,P2_1/c,monoclinic,3.6849
CoH6(SeO4)2,mp-744574,P2_1/c,monoclinic,0.317
HoBrO,mp-752637,Pmmn,orthorhombic,4.4656
BiOF,mp-752949,R-3m,rhombohedral,3.3519
TiOF,mp-753059,Pmmn,orthorhombic,0.0009
HoIO,mp-753173,P4/nmm,tetragonal,3.5203
YIO,mp-753712,P4/nmm,tetragonal,3.4989
NbOF3,mp-753800,P-1,triclinic,3.5602
TiOF2,mp-753858,P2_1,monoclinic,3.2468
YIO,mp-754038,R-3m,rhombohedral,2.2423
TmClO,mp-754113,Pmmn,orthorhombic,5.1506
SmIO,mp-754217,P4/nmm,tetragonal,3.6611
TiSnO3,mp-754246,R-3,rhombohedral,1.2745
Tm(HO)3,mp-754355,P2_1/c,monoclinic,4.975
TmBrO,mp-754526,Pmmn,orthorhombic,4.5533
MgCl2O,mp-754645,P2_1/c,monoclinic,2.979
SmIO,mp-754960,R-3m,rhombohedral,2.2148
TmBrO,mp-754969,P4/nmm,tetragonal,4.3783
CuTeO4,mp-755455,P2/m,monoclinic,0.0655
Mg2SnO4,mp-755856,Pbam,orthorhombic,3.0169
Lu(HO)3,mp-756273,P2_1/c,monoclinic,5.0095
AgBrO4,mp-756342,I4_1/a,tetragonal,0.4818
CuH4(IO4)2,mp-756758,P2_1/c,monoclinic,2.2027
SbOF3,mp-757111,P-1,triclinic,2.5415
Ti5Pb5O14,mp-757480,P1,triclinic,0.0114
GaH5(NF)2,mp-759288,C2/m,monoclinic,2.9128
Mn(CoO3)2,mp-763057,C2/m,monoclinic,0.0022
VPO5,mp-763482,P4/n,tetragonal,1.8636
YBrO,mp-768906,P4/nmm,tetragonal,4.4728
Si3Sb2O9,mp-769028,P6_3/m,hexagonal,4.2296
Ni(PS3)2,mp-769218,C2,monoclinic,0.0074
Mg(IO3)2,mp-770718,P2_12_12_1,orthorhombic,3.165
Sb4I2O5,mp-772282,P2_1/c,monoclinic,1.8835
TmClO,mp-772295,R-3m,rhombohedral,4.5324
HfSnO3,mp-776083,R-3,rhombohedral,2.4524
NbV3O10,mp-776661,P-4m2,tetragonal,1.0654
Al(HO)3,mp-777738,P2_1/c,monoclinic,5.7392
Sb2S2O,mp-861911,C2/m,monoclinic,1.2906
MgH4(NO4)2,mp-864887,P2_1/c,monoclinic,3.5035
UP3,mp-865428,P6_3/mmc,hexagonal,0.0026
Li2DyIn,mp-865580,Fm-3m,cubic,0.0679
B2S3,mp-866066,R-3c,rhombohedral,1.3313
BiS2,mp-971673,C2/m,monoclinic,1.1696
SnAs3,mp-972472,I4/mmm,tetragonal,0.0007
LuIO,mp-973585,P4/nmm,tetragonal,3.3389
LuBrO,mp-973981,P4/nmm,tetragonal,4.338