formula,mpid,space group,bravais lattice,gap opt
CoSi2,mp-2379,Fm-3m,cubic,0.0168
ErRh,mp-2381,Pm-3m,cubic,0.0038
YbPd3,mp-2391,Pm-3m,cubic,0.0091
PW,mp-2420,Pnma,orthorhombic,0.0007
ErGa2,mp-2422,P6/mmm,hexagonal,0.0108
ErTl3,mp-2431,Pm-3m,cubic,0.0083
HoCo5,mp-2435,P6/mmm,hexagonal,0.0076
YAg,mp-2474,Pm-3m,cubic,0.0054
SmAg,mp-2475,Pm-3m,cubic,0.001
DyMn2,mp-2483,Fd-3m,cubic,0.0035
UC,mp-2489,Fm-3m,cubic,0.0045
ErSe,mp-2491,Fm-3m,cubic,0.0197
BMo2,mp-2501,I4/mcm,tetragonal,0.0028
CrPt3,mp-2515,Pm-3m,cubic,0.005
Ti3Hg,mp-2560,Pm-3m,cubic,0.0147
PrAg,mp-2525,Pm-3m,cubic,0.0044
PrTe,mp-2532,Fm-3m,cubic,0.0107
VTc,mp-2540,Pm-3m,cubic,0.0096
Al3V,mp-2554,I4/mmm,tetragonal,0.0101
SeS,mp-2559,Fm-3m,cubic,0.0141
NbB,mp-2580,Cmcm,orthorhombic,0.0015
TiSi2,mp-2582,Fddd,orthorhombic,0.0007
Si2Mo,mp-2592,I4/mmm,tetragonal,0.0037
NdN,mp-2599,Fm-3m,cubic,0.3712
NdAs,mp-2602,Fm-3m,cubic,0.1305
HfAl3,mp-2614,I4/mmm,tetragonal,0.0018
FeSb,mp-2619,P6_3/mmc,hexagonal,0.0098
DyAs,mp-2627,Fm-3m,cubic,0.1849
Na3N,mp-2639,Pm-3m,cubic,0.1962
TbAs,mp-2640,Fm-3m,cubic,0.1767
CdAg,mp-2642,Pm-3m,cubic,0.0342
TaBe2,mp-2676,Fd-3m,cubic,0.0837
TbGa2,mp-2684,P6/mmm,hexagonal,0.0045
CaSi2,mp-2700,R-3m,rhombohedral,0.0059
NbN,mp-2701,P6_3/mmc,hexagonal,0.0352
USb2,mp-2707,P4/nmm,tetragonal,0.0005
TbSb,mp-2724,Fm-3m,cubic,0.1215
TbIr2,mp-2725,Fd-3m,cubic,0.005
HgTe,mp-2730,F-43m,cubic,0.2095
TiGa3,mp-2731,I4/mmm,tetragonal,0.0006
LiPd,mp-2743,Pm-3m,cubic,0.0322
TiGa,mp-2767,P4/mmm,tetragonal,0.0036
HoMn2,mp-2769,Fd-3m,cubic,0.0034
Ga2Au,mp-2776,Fm-3m,cubic,0.0037
ScPd,mp-2781,Pm-3m,cubic,0.0067
Ta2Si,mp-2783,I4/mcm,tetragonal,0.001
HfRu,mp-2802,Pm-3m,cubic,0.0075
ScP,mp-2807,Fm-3m,cubic,0.1469
YbAu,mp-2818,Pm-3m,cubic,0.0076
TmSe,mp-2822,Fm-3m,cubic,0.0133
NdP,mp-2823,Fm-3m,cubic,0.0873
FePd,mp-2831,P4/mmm,tetragonal,0.0027
B2Os,mp-2850,Pmmn,orthorhombic,0.0032
ScN,mp-2857,Fm-3m,cubic,0.3578
Ho(SiNi)2,mp-2924,I4/mmm,tetragonal,0.0022
Sr(MnSb)2,mp-2968,P-3m1,hexagonal,0.0132
U(CrC)4,mp-2971,I4/m,tetragonal,0.0002
Nd(MnSi)2,mp-3018,I4/mmm,tetragonal,0.0013
TbBPd3,mp-3022,Pm-3m,cubic,0.0043
UTeO,mp-3037,P4/nmm,tetragonal,0.0024
DyAlNi,mp-3053,P-62m,hexagonal,0.0017
LuBPd3,mp-3105,Pm-3m,cubic,0.0035
Dy(SiPt)2,mp-3148,I4/mmm,tetragonal,0.0057
Ho(FeSi)2,mp-3191,I4/mmm,tetragonal,0.0039
TbAlPd,mp-3197,P-62m,hexagonal,0.0038
USeO,mp-3217,P4/nmm,tetragonal,0.0032
Ti3AlC,mp-3271,Pm-3m,cubic,0.0095
Tb(CoSi)2,mp-3292,I4/mmm,tetragonal,0.0003
Sr(PPd)2,mp-3385,I4/mmm,tetragonal,0.0008
U(SiPt)2,mp-3406,I4/mmm,tetragonal,0.0009
Th(CrGe)2,mp-3447,I4/mmm,tetragonal,0.002
FeSiRu2,mp-3464,Fm-3m,cubic,0.0054
MgAgAs,mp-3477,F-43m,cubic,0.0231
FeCuS2,mp-3497,I-42d,tetragonal,0.0014
KTeAu,mp-3553,P6_3/mmc,hexagonal,0.4196
Ce(SiRu)2,mp-3566,I4/mmm,tetragonal,0.0008
NdPPd,mp-3570,P6_3/mmc,hexagonal,0.0052
MnAlCu2,mp-3574,Fm-3m,cubic,0.0052
HfGaCo2,mp-3576,Fm-3m,cubic,0.0149
UGeSe,mp-3579,I4/mmm,tetragonal,0.0004
Sc(SiNi)2,mp-3587,I4/mmm,tetragonal,0.0056
MnAlCo2,mp-3623,Fm-3m,cubic,0.0031
Nd(SiRh)2,mp-3651,I4/mmm,tetragonal,0.0017
TiCo2Si,mp-3657,Fm-3m,cubic,0.0331
SrAlSi,mp-3698,P-6m2,hexagonal,0.0026
ScCo2Sn,mp-3791,Fm-3m,cubic,0.0561
Al(FeB)2,mp-3805,Cmmm,orthorhombic,0.0002
ZrAlCo2,mp-3909,Fm-3m,cubic,0.016
ZrSiS,mp-3938,P4/nmm,tetragonal,0.0033
Sm(SiNi)2,mp-3939,I4/mmm,tetragonal,0.0021
ZrAlNi2,mp-3944,Fm-3m,cubic,0.0258
Er(SiOs)2,mp-3958,I4/mmm,tetragonal,0.0003
Sm(CuSi)2,mp-3997,I4/mmm,tetragonal,0.0009
Pr(CuSi)2,mp-4014,I4/mmm,tetragonal,0.0107
TmNiC2,mp-4037,Amm2,orthorhombic,0.0059
YbSnPd2,mp-4053,Fm-3m,cubic,0.019
Sm(CoB)2,mp-4073,I4/mmm,tetragonal,0.0103
VCoSb,mp-4076,F-43m,cubic,0.0029
Ba(AsRu)2,mp-4109,I4/mmm,tetragonal,0.0001
CaCuAs,mp-4120,P6_3/mmc,hexagonal,0.0268
Ca(MnSb)2,mp-4150,P-3m1,hexagonal,0.0077
Ca(CoGe)2,mp-4259,I4/mmm,tetragonal,0.0043
BeAlB,mp-4262,F-43m,cubic,0.1451
Sm(SiPd)2,mp-4275,I4/mmm,tetragonal,0.0008
U(GePd)2,mp-4297,I4/mmm,tetragonal,0.0008
SmSnAu,mp-4304,P6_3mc,hexagonal,0.022
Er(CuSi)2,mp-4305,I4/mmm,tetragonal,0.0134
HoAgSn,mp-4311,P6_3mc,hexagonal,0.0366
Nd(SiPd)2,mp-4323,I4/mmm,tetragonal,0.0014
Tl(NiSe)2,mp-4354,I4/mmm,tetragonal,0.0017
Sr(AsPd)2,mp-4370,I4/mmm,tetragonal,0.0026
Y3AlC,mp-4448,Pm-3m,cubic,0.0903
DyNiC2,mp-4587,Amm2,orthorhombic,0.0021
TiCo2Ge,mp-4612,Fm-3m,cubic,0.0308
Tb(SiAg)2,mp-4614,I4/mmm,tetragonal,0.0012
Nd(GePd)2,mp-4725,I4/mmm,tetragonal,0.0052
Er(MnSi)2,mp-4729,I4/mmm,tetragonal,0.0066
Ca(NiAs)2,mp-4744,I4/mmm,tetragonal,0.0078
U(SiPd)2,mp-4793,I4/mmm,tetragonal,0.0004
Pr(CoGe)2,mp-4810,I4/mmm,tetragonal,0.0024
NbAlNi2,mp-4813,Fm-3m,cubic,0.0198
Pr(SiRh)2,mp-4815,I4/mmm,tetragonal,0.0018
Y(SiPd)2,mp-4822,I4/mmm,tetragonal,0.0037
MnSbRh,mp-4846,F-43m,cubic,0.0067
NdScGe,mp-4854,I4/mmm,tetragonal,0.0029
MnAlNi2,mp-4922,Fm-3m,cubic,0.0022
CoSbS,mp-4962,Pmn2_1,orthorhombic,0.0147
Dy(MnSi)2,mp-4985,I4/mmm,tetragonal,0.0097
Zr2SbP,mp-5137,P6_3/mmc,hexagonal,0.0162
U2PN2,mp-5381,P-3m1,hexagonal,0.0007
Er(SiRh)2,mp-5386,I4/mmm,tetragonal,0.0026
Th(CrSi)2,mp-5400,I4/mmm,tetragonal,0.0017
TiAlCo2,mp-5407,Fm-3m,cubic,0.0053
SmCo3B2,mp-5410,P6/mmm,hexagonal,0.0055
MnAlAu2,mp-5491,Fm-3m,cubic,0.0038
Ca(MnAs)2,mp-5498,P-3m1,hexagonal,0.0099
Tl(CoS)2,mp-5501,I4/mmm,tetragonal,0.0026
U2TeN2,mp-5505,I4/mmm,tetragonal,0.0006
U(SiAu)2,mp-5510,I4/mmm,tetragonal,0.0013
HoGeAu,mp-5519,P6_3mc,hexagonal,0.033
Ca(FeP)2,mp-5597,I4/mmm,tetragonal,0.0067
Nd(CoP)2,mp-5622,I4/mmm,tetragonal,0.0022
Th(SiNi)2,mp-5682,I4/mmm,tetragonal,0.0022
YAgSn,mp-5729,P6_3mc,hexagonal,0.0086
Ce(SiPt)2,mp-5734,I4/mmm,tetragonal,0.0
U2SN2,mp-5739,P-3m1,hexagonal,0.0037
Tb(SiIr)2,mp-5752,I4/mmm,tetragonal,0.0002
AlVFe2,mp-5778,Fm-3m,cubic,0.0152
UBC,mp-5816,Cmcm,orthorhombic,0.0006
CaCuSb,mp-5910,P6_3/mmc,hexagonal,0.0302
TaAlNi2,mp-5921,Fm-3m,cubic,0.0265
Yb(CuSi)2,mp-5934,I4/mmm,tetragonal,0.0098
Tm(CoGe)2,mp-5983,I4/mmm,tetragonal,0.0005
Mn2Sb,mp-6912,P6_3/mmc,hexagonal,0.0007
ScSnAu,mp-6919,P6_3mc,hexagonal,0.0069
Ca(PPd)2,mp-6926,I4/mmm,tetragonal,0.0069
Ca(MnP)2,mp-6953,P-3m1,hexagonal,0.0053
TlSb,mp-6958,Pm-3m,cubic,0.0041
Sc(CuSi)2,mp-6969,I4/mmm,tetragonal,0.0017
RbTeAu,mp-7025,P6_3/mmc,hexagonal,0.4247
Mn3PtN,mp-7070,Pm-3m,cubic,0.0097
Er(SiPt)2,mp-7107,I4/mmm,tetragonal,0.0063
Ho3SnC,mp-7114,Pm-3m,cubic,0.0318
PrTe,mp-7131,Pm-3m,cubic,0.0046
OsC,mp-7142,P-6m2,hexagonal,0.0095
Sm3AlC,mp-7144,Pm-3m,cubic,0.0011
Na2LiN,mp-7149,P6/mmm,hexagonal,0.0476
UTeP,mp-7170,I4/mmm,tetragonal,0.0003
TmP,mp-7171,Fm-3m,cubic,0.1415
V3Ni,mp-7226,Pm-3n,cubic,0.0023
Li(CuP)2,mp-7298,I4/mmm,tetragonal,0.006
Ca(SiAu)2,mp-7364,I4/mmm,tetragonal,0.0033
Ca(ZnSb)2,mp-7429,P-3m1,hexagonal,0.1056
Sr(CdSb)2,mp-7432,P-3m1,hexagonal,0.0247
Nb2CrSe4,mp-7443,C2/m,monoclinic,0.0036
RbYbO2,mp-7479,R-3m,rhombohedral,4.5301
ThZn2,mp-7496,P6/mmm,hexagonal,0.0022
LiVS2,mp-7543,P-3m1,hexagonal,0.0007
Al(CoSi)2,mp-10010,P-3m1,hexagonal,0.0046
Ge2Os,mp-10032,C2/m,monoclinic,0.0072
Er3AlC,mp-10038,Pm-3m,cubic,0.0247
Tb3AlC,mp-10041,Pm-3m,cubic,0.045
Ca2As,mp-10106,I4/mmm,tetragonal,0.008
SiRh,mp-10110,Pm-3m,cubic,0.0036
SbIr,mp-10125,P6_3/mmc,hexagonal,0.0261
YbBPd3,mp-10135,Pm-3m,cubic,0.012
SmB2,mp-10141,P6/mmm,hexagonal,0.0043
Ta3B4,mp-10142,Immm,orthorhombic,0.0025
LiMgSbPd,mp-10179,F-43m,cubic,0.0065
Li2SbPd,mp-10180,F-43m,cubic,0.0241
LiSiNi2,mp-10181,Fm-3m,cubic,0.0085
LuP,mp-10192,Fm-3m,cubic,0.1552
LuSbPt,mp-10194,F-43m,cubic,0.063
Mn3PdN,mp-10198,Pm-3m,cubic,0.0211
Ge2Mo,mp-10201,I4/mmm,tetragonal,0.0251
Sr2IrO4,mp-10254,I4/mmm,tetragonal,0.0101
NiTe,mp-10264,R-3m,rhombohedral,0.0016
Er3GaC,mp-10274,Pm-3m,cubic,0.0582
Ho3GaC,mp-10279,Pm-3m,cubic,0.0113
Nd3GaC,mp-10280,Pm-3m,cubic,0.0111
KMnTe2,mp-10286,I-4m2,tetragonal,0.0014
Tm3GaC,mp-10351,Pm-3m,cubic,0.0321
Cr3SnN,mp-10376,Pm-3m,cubic,0.0038
Sr(SiAg)2,mp-7880,I4/mmm,tetragonal,0.001
ZrSiO,mp-7915,P4/nmm,tetragonal,0.013
HfGeSe,mp-7917,P4/nmm,tetragonal,0.0028
PtO,mp-7947,P4_2/mmc,tetragonal,0.0075
Al2O,mp-8022,Fm-3m,cubic,0.0124
Ba2Cd,mp-8093,I4/mmm,tetragonal,0.0011
LuCuSi,mp-8125,P6_3/mmc,hexagonal,0.0034
NiC2(SN)2,mp-8129,C2/m,monoclinic,0.0067
Ba(CdSb)2,mp-8150,P-3m1,hexagonal,0.0164
TaF3,mp-8338,Pm-3m,cubic,0.0141
Pr3GaC,mp-8368,Pm-3m,cubic,0.0098
CaCuP,mp-8432,P6_3/mmc,hexagonal,0.0156
SrSnP,mp-8539,P4/nmm,tetragonal,0.0055
Sc3GaC,mp-8577,Pm-3m,cubic,0.0566
Sc3InC,mp-8578,Pm-3m,cubic,0.0453
BaSbPt,mp-8606,P-6m2,hexagonal,0.0037
SmSiRu,mp-8655,P4/nmm,tetragonal,0.0051
SmRhC2,mp-8758,Amm2,orthorhombic,0.0052
NdCoC2,mp-8761,Cc,monoclinic,0.0192
NdAsPd,mp-8950,P6_3mc,hexagonal,0.0033
Sc3RuC4,mp-8996,Immm,orthorhombic,0.0037
YSiAu,mp-9025,P6_3mc,hexagonal,0.0155
ThSiAu,mp-9164,P-6m2,hexagonal,0.0134
SmNi2B2C,mp-9220,I4/mmm,tetragonal,0.0015
NaTeAu,mp-9264,P6_3/mmc,hexagonal,0.3236
ZrSnTe,mp-9289,P4/nmm,tetragonal,0.0129
PrNiC2,mp-9312,Amm2,orthorhombic,0.0017
USiAu,mp-9487,P-6m2,hexagonal,0.0038
Ba3(AlSi)2,mp-9578,Immm,orthorhombic,0.0023
Yb(MnAs)2,mp-9592,P-3m1,hexagonal,0.0089
NbCrSi,mp-9916,P-62m,hexagonal,0.0215
VP2,mp-9923,C2/m,monoclinic,0.004
Hf2Si,mp-9938,I4/mcm,tetragonal,0.0011
AlCr2C,mp-9956,P6_3/mmc,hexagonal,0.002
Y3TlC,mp-9960,Pm-3m,cubic,0.051
NdSi,mp-9967,Pnma,orthorhombic,0.0004
ScSi,mp-9969,Cmcm,orthorhombic,0.002
ScGe,mp-9970,Cmcm,orthorhombic,0.0025
VB,mp-9973,Cmcm,orthorhombic,0.0001
NbNiB,mp-9985,Cmcm,orthorhombic,0.0044
Ni(BMo)2,mp-9999,Immm,orthorhombic,0.014
Sc6FeTe2,mp-10445,P-62m,hexagonal,0.0051
Lu(SiRu)2,mp-10453,I4/mmm,tetragonal,0.0014
Y2AlSi2,mp-10527,Immm,orthorhombic,0.0034
Tm2AlSi2,mp-10530,Immm,orthorhombic,0.0111
FeIr3,mp-10596,Pm-3m,cubic,0.0023
Sm3GaC,mp-10602,Pm-3m,cubic,0.0166
PrAs,mp-10622,Fm-3m,cubic,0.1237
ThSb,mp-10637,Pm-3m,cubic,0.026
YbSi,mp-10651,Cmcm,orthorhombic,0.0011
SmTe,mp-10652,Pm-3m,cubic,0.006
Mn3AgN,mp-10666,Pm-3m,cubic,0.0111
Yb(SiAg)2,mp-10668,I4/mmm,tetragonal,0.0049
Ba3(AlGe)2,mp-10669,C2/m,monoclinic,0.0029
Sm3AlN,mp-10674,Pm-3m,cubic,0.0224
CaPAu,mp-10677,P6_3/mmc,hexagonal,0.0528
CaTe,mp-10684,Pm-3m,cubic,0.1081
Ba(GeRh)2,mp-10698,I4/mmm,tetragonal,0.0093
LuRh3C,mp-10699,Pm-3m,cubic,0.0101
VSi2,mp-10711,P6_222,hexagonal,0.0027
Sm3SnC,mp-10718,Pm-3m,cubic,0.0181
BaSbAu,mp-10769,P6_3/mmc,hexagonal,0.0042
SmPPd,mp-10868,P6_3/mmc,hexagonal,0.0025
AlAu,mp-10871,Pm-3m,cubic,0.0059
MnAlPd2,mp-10891,Fm-3m,cubic,0.0216
MnAlPt2,mp-10893,Fm-3m,cubic,0.0022
Mn2AlV,mp-10895,Fm-3m,cubic,0.0102
AlVNi2,mp-10899,Fm-3m,cubic,0.0135
PrAl,mp-10902,Pm-3m,cubic,0.0385
AlPt,mp-10903,Pm-3m,cubic,0.0063
Al3Pt2,mp-10905,P-3m1,hexagonal,0.0013
PaAs2,mp-11106,P4/nmm,tetragonal,0.001
TiTeAs,mp-11113,Immm,orthorhombic,0.0016
SmMgGa,mp-11157,P-62m,hexagonal,0.0244
NaC,mp-11180,Immm,orthorhombic,3.7248
VSi2,mp-11190,P6_422,hexagonal,0.0027
Tm6FeSb2,mp-11204,P-62m,hexagonal,0.0002
BaAgSb,mp-11213,P6_3/mmc,hexagonal,0.0424
SmAl,mp-11221,Pm-3m,cubic,0.0165
ZrAg,mp-11239,P4/nmm,tetragonal,0.0133
DyPbAu,mp-11242,F-43m,cubic,0.0637
ErAu,mp-11243,Cmcm,orthorhombic,0.0003
BeRh,mp-11276,Pm-3m,cubic,0.0086
DyCd2,mp-11294,P6/mmm,hexagonal,0.0067
ErCd2,mp-11296,P6/mmm,hexagonal,0.0085
HoCd2,mp-11301,Cmmm,orthorhombic,0.0047
NbCd3,mp-11309,Pm-3m,cubic,0.003
ZrSi,mp-11322,Cmcm,orthorhombic,0.0003
P2W,mp-11329,C2/m,monoclinic,0.0007
PrO,mp-11344,Fm-3m,cubic,0.003
TaCo3,mp-11358,Pm-3m,cubic,0.0011
TiCu,mp-11364,Pm-3m,cubic,0.0029
ErInPd2,mp-11371,Fm-3m,cubic,0.0211
DyTl,mp-11374,Pm-3m,cubic,0.0029
HfGa3,mp-11387,I4/mmm,tetragonal,0.0036
ScGa2Ni,mp-11401,Cmcm,orthorhombic,0.001
ScGa,mp-11411,Cmcm,orthorhombic,0.0002
ScGa2,mp-11412,Imma,orthorhombic,0.0024
TaGa3,mp-11416,I4/mmm,tetragonal,0.0013
TbGa,mp-11417,Cmcm,orthorhombic,0.0035
HfOs,mp-11452,Pm-3m,cubic,0.0211
KHg,mp-11462,P-1,triclinic,0.0043
MgHg2,mp-11464,I4/mmm,tetragonal,0.0018
NaHg2,mp-11466,P6/mmm,hexagonal,0.0113
NdHg,mp-11467,Pm-3m,cubic,0.0001
Hg2Pt,mp-11470,P4/mmm,tetragonal,0.0068
TmHg,mp-11475,Pm-3m,cubic,0.0085
HoIr,mp-11476,Pm-3m,cubic,0.0086
Ni3Mo,mp-11506,Pmmn,orthorhombic,0.0037
ScNi,mp-11521,Pm-3m,cubic,0.0191
Ni3Sn,mp-11522,Pm-3m,cubic,0.066
NbAlRu2,mp-11537,Fm-3m,cubic,0.0346
ZrOs,mp-11541,Pm-3m,cubic,0.0291
ZrPt,mp-11554,Pm-3m,cubic,0.0143
SmTl,mp-11568,Pm-3m,cubic,0.0113
YbZn,mp-11577,Fm-3m,cubic,0.0117
ZnNiSb,mp-11621,F-43m,cubic,0.006
Yb3PbO,mp-11652,Pm-3m,cubic,0.0338
BaCuSb,mp-11700,P6_3/mmc,hexagonal,0.0423
ErNiC2,mp-11723,Amm2,orthorhombic,0.0066
Lu6Sb2Mo,mp-11755,P-62m,hexagonal,0.0009
Co3Se4,mp-11800,C2/m,monoclinic,0.0011
CuNiSb2,mp-11834,P-3m1,hexagonal,0.0064
BaAg,mp-11840,Pnma,orthorhombic,0.0032
SmMgTl,mp-11987,P-62m,hexagonal,0.0055
Er2Al3Si2,mp-12004,C2/m,monoclinic,0.0044
Tm2Al3Si2,mp-12005,C2/m,monoclinic,0.0008
Ti3As,mp-12071,Pm-3n,cubic,0.0086
Ba(BIr)2,mp-12073,I4/mmm,tetragonal,0.0069
Tb(FeB)2,mp-12075,I4/mmm,tetragonal,0.0018
K(CoS)2,mp-12079,I4/mmm,tetragonal,0.0021
CrIr3,mp-12083,Pm-3m,cubic,0.0008
Dy(SiOs)2,mp-12088,I4/mmm,tetragonal,0.0009
Sm(SiIr)2,mp-12097,I4/mmm,tetragonal,0.0012
RbO2,mp-12105,I4/mmm,tetragonal,4.5747
VPt2,mp-12108,Immm,orthorhombic,0.0002
LuAgSn,mp-12505,P6_3mc,hexagonal,0.0057
TiCu3,mp-12546,Pmmn,orthorhombic,0.0097
SrCuAs,mp-12557,P6_3/mmc,hexagonal,0.0048
TaAs2,mp-12561,C2/m,monoclinic,0.0167
ScIr3,mp-12593,Pm-3m,cubic,0.0041
PrTl,mp-12599,Pm-3m,cubic,0.0054
PrPt,mp-12607,Cmcm,orthorhombic,0.0007
TiAu4,mp-12635,I4/m,tetragonal,0.0001
MnAu,mp-12674,Pm-3m,cubic,0.0002
MnAu,mp-12675,P4/mmm,tetragonal,0.0009
Mg2Rh,mp-12693,I4/mmm,tetragonal,0.0013
LiPrSn,mp-12718,F-43m,cubic,0.0245
LiNdSn,mp-12719,F-43m,cubic,0.0238
ThPt,mp-12754,Cmcm,orthorhombic,0.0032
TbB6,mp-12763,Pm-3m,cubic,0.0028
AlCu3,mp-12777,Fm-3m,cubic,0.0027
Sr(CdGa)2,mp-12783,I4/mmm,tetragonal,0.0095
SmCuSn,mp-12791,P6_3mc,hexagonal,0.053
SmAlSi,mp-12804,I4_1md,tetragonal,0.004
Cu2GeTe3,mp-12806,Imm2,orthorhombic,0.0057
HoSi,mp-12900,Pnma,orthorhombic,0.0038
IrN2,mp-13076,Pnnm,orthorhombic,0.0006
Cu2SnTe3,mp-13089,Imm2,orthorhombic,0.003
YN,mp-13098,Pm-3m,cubic,0.0387
NiN,mp-13116,F-43m,cubic,0.0013
LaN,mp-13132,Pm-3m,cubic,0.0608
BaAlSi,mp-13149,P-6m2,hexagonal,0.001
Hf2Ag,mp-13155,I4/mmm,tetragonal,0.0004
HfAg,mp-13156,P4/nmm,tetragonal,0.004
ZnO,mp-13161,Pm-3m,cubic,0.6657
Ti2Pd,mp-13164,I4/mmm,tetragonal,0.0004
PtN,mp-13174,F-43m,cubic,0.0052
PtN,mp-13175,Fm-3m,cubic,0.0081
YCuSn,mp-13202,P6_3mc,hexagonal,0.0095
Yb(MnSi)2,mp-13398,I4/mmm,tetragonal,0.0014
Sm(MnSi)2,mp-13473,I4/mmm,tetragonal,0.0003
Tb2ZnNi2,mp-13535,Immm,orthorhombic,0.0004
ScSiPt2,mp-13572,Cmcm,orthorhombic,0.0024
PdF3,mp-13679,R-3c,rhombohedral,0.002
NiB,mp-14019,Cmcm,orthorhombic,0.0139
Th(AlC)4,mp-15123,I4/m,tetragonal,0.0187
Hf6NiSb2,mp-15297,P-62m,hexagonal,0.0031
Sr2Sb,mp-15624,I4/mmm,tetragonal,0.0016
CrAs2,mp-15681,C2/m,monoclinic,0.0032
Sr2As,mp-15697,I4/mmm,tetragonal,0.0125
Ti3PO2,mp-15800,P-3m1,hexagonal,0.0044
Cr2B,mp-15809,I4/mcm,tetragonal,0.0025
DyRh3C,mp-15856,Pm-3m,cubic,0.0161
Sm(CoSi)2,mp-15968,I4/mmm,tetragonal,0.0066
CaSbAu,mp-16245,P6_3/mmc,hexagonal,0.0454
CaZnSi,mp-16266,P6_3/mmc,hexagonal,0.0044
ZnNi3C,mp-16290,Pm-3m,cubic,0.0142
YbTlS2,mp-16472,R-3m,rhombohedral,0.0246
TiAlAu,mp-16481,P6_3/mmc,hexagonal,0.0066
UAlNi4,mp-16519,F-43m,cubic,0.0016
CdCu2SnSe4,mp-16565,I-42m,tetragonal,0.2239
Cu2SnHgSe4,mp-16566,I-42m,tetragonal,0.0175
YP,mp-16731,Pm-3m,cubic,0.016
SmNiAs,mp-16734,P-6m2,hexagonal,0.0484
Ba2Mn3(SbO)2,mp-18787,I4/mmm,tetragonal,0.0056
CrO2,mp-19177,P4_2/mnm,tetragonal,0.0028
Sr2Mn3(SbO)2,mp-19246,I4/mmm,tetragonal,0.0037
InAuO2,mp-19723,P6_3/mmc,hexagonal,0.3991
Sm3PbC,mp-19758,Pm-3m,cubic,0.0033
Pr3In,mp-19764,Pm-3m,cubic,0.0016
Sm2In,mp-19816,P6_3/mmc,hexagonal,0.0024
Y3InC,mp-19817,Pm-3m,cubic,0.0347
ZrNi2Sn,mp-19877,Fm-3m,cubic,0.0199
Dy3SnC,mp-19899,Pm-3m,cubic,0.0127
TbMn2,mp-20075,Fd-3m,cubic,0.002
TiGaCo2,mp-20145,Fm-3m,cubic,0.0077
CoSn2,mp-20155,I4/mcm,tetragonal,0.0021
Mn2GaCo,mp-20160,F-43m,cubic,0.0091
NaMnP,mp-20227,P4/nmm,tetragonal,0.0017
Th(FeGe)2,mp-20238,I4/mmm,tetragonal,0.0019
U(SiIr)2,mp-20260,Immm,orthorhombic,0.0039
CaIn,mp-20263,Pm-3m,cubic,0.0123
NbInSe2,mp-20279,P-6m2,hexagonal,0.0055
SmIn,mp-20298,Pm-3m,cubic,0.0019
Mn2B,mp-20318,I4/mcm,tetragonal,0.0007
InTe,mp-20320,I4/mcm,tetragonal,0.0458
Ti3InC,mp-20325,Pm-3m,cubic,0.011
Ce2SbO2,mp-20356,C2/m,monoclinic,0.0005
Sm3Ga,mp-20366,Pm-3m,cubic,0.0109
Nd3SnC,mp-20423,Pm-3m,cubic,0.0365
MnSnPd2,mp-20481,Fm-3m,cubic,0.006
Ta2InCuTe4,mp-20505,I-42m,tetragonal,0.0038
ScInPt2,mp-20521,Fm-3m,cubic,0.0031
HoMgIn,mp-20538,P-62m,hexagonal,0.0112
Pr(MnGe)2,mp-20542,I4/mmm,tetragonal,0.0049
Pr3SnC,mp-20543,Pm-3m,cubic,0.0227
DyMgIn,mp-20573,P-62m,hexagonal,0.0073
U(SiNi)2,mp-20596,I4/mmm,tetragonal,0.0
Tb2In,mp-20608,P6_3/mmc,hexagonal,0.0037
Mn2Sb,mp-20664,P4/nmm,tetragonal,0.0074
SmIn2Rh,mp-20666,Cmcm,orthorhombic,0.001
Mg2Pb,mp-20724,Fm-3m,cubic,0.0354
ZrInNi2,mp-20744,Fm-3m,cubic,0.0144
CeCoC2,mp-20753,Cc,monoclinic,0.0006
NdCuSn,mp-20774,P6_3mc,hexagonal,0.0195
U(CoGe)2,mp-20776,I4/mmm,tetragonal,0.0003
FeB,mp-20787,Pnma,orthorhombic,0.0004
InN,mp-20812,Fm-3m,cubic,0.3899
Pt3Pb,mp-20828,Pm-3m,cubic,0.0322
Sr(AlPb)2,mp-20872,I4/mmm,tetragonal,0.003
NdAgPb,mp-20880,P6_3mc,hexagonal,0.0074
TmInNi4,mp-20896,F-43m,cubic,0.0153
U(FeSi)2,mp-20924,I4/mmm,tetragonal,0.0058
UIn3,mp-20941,Pm-3m,cubic,0.0048
TePb,mp-20943,Pm-3m,cubic,0.0104
Tb3PbC,mp-20963,Pm-3m,cubic,0.0732
NaMnSb,mp-20970,P4/nmm,tetragonal,0.0069
V2InC,mp-20983,P6_3/mmc,hexagonal,0.0024
DySnPd2,mp-21014,Fm-3m,cubic,0.0257
PbS,mp-21039,Pm-3m,cubic,0.0824
U(GeIr)2,mp-21046,I4/mmm,tetragonal,0.0013
HfC,mp-21075,Fm-3m,cubic,0.0326
SrPb,mp-21093,Cmcm,orthorhombic,0.0019
NdGeRu,mp-21194,P4/nmm,tetragonal,0.0061
DyAgSn,mp-21198,P6_3mc,hexagonal,0.0239
InFeCo2,mp-21211,Fm-3m,cubic,0.0025
PbSe,mp-21214,Pm-3m,cubic,0.0259
YbIn2Ni,mp-21223,Cmcm,orthorhombic,0.0015
Ti3InN,mp-21233,Pm-3m,cubic,0.0253
Tm3InC,mp-21292,Pm-3m,cubic,0.0141
Tb3InC,mp-21392,Pm-3m,cubic,0.0075
HoIn5Co,mp-21398,P4/mmm,tetragonal,0.0039
Ga3Pt2,mp-21400,P-3m1,hexagonal,0.0065
U(CoSi)2,mp-21429,I4/mmm,tetragonal,0.0006
VCo2Sn,mp-21469,Fm-3m,cubic,0.0062
Fe3SnC,mp-21850,Pm-3m,cubic,0.0144
VGaFe2,mp-21883,Fm-3m,cubic,0.0116
NdCoSi,mp-21890,P4/nmm,tetragonal,0.0032
Ga2Pt,mp-22095,Fm-3m,cubic,0.0059
YRh3C,mp-22120,Pm-3m,cubic,0.0127
DyGeAu,mp-22149,P6_3mc,hexagonal,0.0264
Mn2InCo,mp-22276,F-43m,cubic,0.0052
TbInAg2,mp-22382,Fm-3m,cubic,0.0447
Fe3Sn,mp-22461,Pm-3m,cubic,0.0019
TiInNi2,mp-22463,Fm-3m,cubic,0.0372
Mn2CoSn,mp-22465,F-43m,cubic,0.0051
ZrCo2Sn,mp-22503,Fm-3m,cubic,0.0079
Er3SnC,mp-22537,Pm-3m,cubic,0.0312
TiSi,mp-22558,Cmmm,orthorhombic,0.0007
InFe2CuSe4,mp-22611,I-42m,tetragonal,0.0074
FeCu2SnSe4,mp-22612,I-42m,tetragonal,0.0024
Co2N,mp-22631,Pnnm,orthorhombic,0.0028
Ba(MnSn)2,mp-22679,I4/mmm,tetragonal,0.0227
YIn,mp-22704,Pm-3m,cubic,0.0114
MnInNi2,mp-22731,Fm-3m,cubic,0.0185
TiNiSn,mp-22782,F-43m,cubic,0.0355
VGaCo2,mp-22790,Fm-3m,cubic,0.0248
SmBi,mp-22873,Fm-3m,cubic,0.0174
UBi,mp-22886,Fm-3m,cubic,0.0052
DyBi,mp-22907,Fm-3m,cubic,0.0198
AgI,mp-22915,Pm-3m,cubic,0.0976
TbBi,mp-22921,Fm-3m,cubic,0.166
LaBi,mp-22926,Fm-3m,cubic,0.043
YbCuBi,mp-22953,P6_3mc,hexagonal,0.0483
YbCuBi,mp-22960,P6_3/mmc,hexagonal,0.041
NaMnBi,mp-22973,P4/nmm,tetragonal,0.0039
UNCl,mp-23019,P4/nmm,tetragonal,0.0019
Er6MnBi2,mp-23039,P-62m,hexagonal,0.01
Ho6MnBi2,mp-23047,P-62m,hexagonal,0.0085
PrBi,mp-23171,Fm-3m,cubic,0.1974
NdBi,mp-23300,Fm-3m,cubic,0.2048
Rb3Bi,mp-23304,Fm-3m,cubic,0.7055
K2RuCl6,mp-23471,Fm-3m,cubic,1.817
HBr,mp-23903,Fm-3m,cubic,0.0262
Ta2H,mp-24082,C222,orthorhombic,0.0035
PrH2,mp-24095,Fm-3m,cubic,0.0167
HoH2,mp-24152,Fm-3m,cubic,0.0198
NbH2,mp-24154,Fm-3m,cubic,0.0092
ScH2,mp-24237,Fm-3m,cubic,0.0411
CrH,mp-24287,Fm-3m,cubic,0.0092
HPd,mp-24289,Fm-3m,cubic,0.0469
SmH2,mp-24658,Fm-3m,cubic,0.0395
TaH2,mp-24723,Fm-3m,cubic,0.0046
TiH2,mp-24726,I4/mmm,tetragonal,0.0009
TmH2,mp-24727,Fm-3m,cubic,0.0205
U2BiN2,mp-27468,I4/mmm,tetragonal,0.0012
NbPS,mp-27471,Immm,orthorhombic,0.0022
Cr2NiS4,mp-27512,C2/m,monoclinic,0.0064
CrB4,mp-27710,Immm,orthorhombic,0.0017
HfH2,mp-27731,I4/mmm,tetragonal,0.0089
UBrN,mp-27762,P4/nmm,tetragonal,0.004
K2OsBr6,mp-27835,Fm-3m,cubic,1.6406
Na3Bi,mp-27838,P6_3/mmc,hexagonal,0.0942
BiO,mp-27945,R3m,rhombohedral,0.0025
Ag8S,mp-28963,F-43m,cubic,0.0072
VSe,mp-29131,P6_3/mmc,hexagonal,0.0021