formula,mpid,space group,bravais lattice,gap opt
PrBrO,mp-975666,P4/nmm,tetragonal,4.4171
LuH2ClO2,mp-976349,Pnma,orthorhombic,4.853
Nd2Mg,mp-976425,Cmcm,orthorhombic,0.0016
HoH2ClO2,mp-976713,P2_1/m,monoclinic,4.6936
PW4Cl11,mp-977371,Cmcm,orthorhombic,0.0268
Mg2As,mp-978259,Cmcm,orthorhombic,0.0225
MgZn,mp-978268,Pmma,orthorhombic,0.0078
Cr(GaS2)2,mp-985304,P-3m1,hexagonal,0.3049
ScBrO,mp-989190,P4/nmm,tetragonal,3.3929
SnBrCl,mp-989194,P4/nmm,tetragonal,1.3545
HfTeSe4,mp-989651,P2/m,monoclinic,0.7761
ScClO,mp-990436,P4/nmm,tetragonal,2.6685
CuHO2,mp-996953,C2/m,monoclinic,0.0644
HAuO2,mp-996955,C2/m,monoclinic,1.201
AgBiO2,mp-996969,P2_1/m,monoclinic,1.3039
AuO2F,mp-997027,C222_1,orthorhombic,0.884
AgO2F,mp-997028,C222_1,orthorhombic,0.022
AuBrO2,mp-997033,C222_1,orthorhombic,0.2542
CuO2F,mp-997035,C222_1,orthorhombic,0.0317
RbAgO2,mp-997052,Cmcm,orthorhombic,1.1391
KAgO2,mp-997088,Cmcm,orthorhombic,1.0346
AlP,mp-997569,P4/mbm,tetragonal,1.1356
NiHO2,mp-999337,P3m1,hexagonal,0.0032
AlBr4,mp-39008,Fm-3c,cubic,4.8084
TiSCl6O,mp-554370,P-1,triclinic,2.3171
CuH12(N5O4)2,mp-556842,P-1,triclinic,0.397
Ta2Te4Br10O,mp-560333,P-1,triclinic,0.8451
MoCl4,mp-569005,P-31m,hexagonal,0.0044
Nb(Te2I3)2,mp-570873,P-1,triclinic,0.0282
SbI3(BrCl3)2,mp-570962,P-1,triclinic,0.7613
Se2NCl3,mp-571134,P2_1/c,monoclinic,0.8403
GaCl3,mp-571266,P-1,triclinic,3.9191
FeSeBr7,mp-607953,Pc,monoclinic,0.5848
H4N2O3,mp-625635,C2,monoclinic,0.0861
CuH12(IN)4,mp-634716,C2/m,monoclinic,0.7772
H8Pd(NCl3)2,mp-643735,P2_1/c,monoclinic,1.0674
PBr7,mp-647343,Pnma,orthorhombic,1.2967
Re(SeCl6)2,mp-652695,Fdd2,orthorhombic,0.9218
TeWCl9,mp-669325,P-1,triclinic,0.0055
SiH2O,mp-675098,Cm,monoclinic,0.0005
H8(NO2)3,mp-676050,P1,triclinic,1.2341
ZnB8(H2N)4,mp-720897,P4_2/nmc,tetragonal,0.0078
SbTe2F6,mp-754462,P-1,triclinic,0.7832
H4C,mp-1021328,I-43m,cubic,7.8908
PbCO3,mp-19893,Pnma,orthorhombic,3.4184
AsCl2F3,mp-23444,P4/n,tetragonal,2.9283
MgTe(H4O3)3,mp-23888,R3,rhombohedral,4.3379
H4INO4,mp-24087,I4_1/a,tetragonal,2.4388
SbClF8,mp-27314,P-1,triclinic,3.1882
As(IF2)3,mp-27445,P-1,triclinic,1.1942
SiH3F,mp-28289,P2_1/c,monoclinic,5.9103
Si3CCl8,mp-28813,P-1,triclinic,4.5322
TaTeBr9,mp-29716,P2_1/m,monoclinic,1.9841
GeCl4,mp-30086,P2_1/c,monoclinic,3.7647
SeCl,mp-504825,P2_1/c,monoclinic,1.8415
TaTeCl9,mp-541877,P-1,triclinic,2.524
B4CCl6O,mp-545479,R3m,rhombohedral,4.0596
RuO4,mp-547094,C2/c,monoclinic,2.3578
SiC(ClF)3,mp-554491,C2/m,monoclinic,6.1174
H13C4NF2,mp-554840,Pmmn,orthorhombic,6.9988
WF6,mp-555003,Pnma,orthorhombic,0.828
SbS2NCl6,mp-555056,Immm,orthorhombic,1.1806
CS2NF5,mp-555513,P-1,triclinic,2.9626
OsC4(ClO2)2,mp-555997,P4_2/mnm,tetragonal,2.3372
TlHCO2,mp-557687,Pnna,orthorhombic,3.4021
BH9(CO)3,mp-558506,P6_3/m,hexagonal,6.1049
BH11C4NClF4,mp-559235,P2_1/m,monoclinic,6.5085
SbCl(OF3)2,mp-560354,Pmmn,orthorhombic,2.1533
As2Pb4S6ICl,mp-561299,Pmn2_1,orthorhombic,1.8009
H14C3NF5,mp-561300,P-1,triclinic,7.6846
CSNF5,mp-562018,Pnma,orthorhombic,4.1801
InI3,mp-567789,P2_1/c,monoclinic,1.8785
Pd(Se3Br)2,mp-568146,P-1,triclinic,0.7845
SiSe2,mp-568313,Ibam,orthorhombic,1.141
BiI,mp-568388,C2/m,monoclinic,0.051
BiBr,mp-568758,P-1,triclinic,0.1733
ZrCl4,mp-569175,P2/c,monoclinic,3.4949
BiSeBr,mp-569707,Pnma,orthorhombic,1.5835
Al(BH4)3,mp-569787,Pna2_1,orthorhombic,6.2225
SbBr3,mp-570005,Pnma,orthorhombic,2.8658
NbAsPCl13,mp-570225,Cmc2_1,orthorhombic,2.2684
SnICl,mp-571146,Pnma,orthorhombic,2.4622
SnI4,mp-571436,P-43m,cubic,0.6818
SiBr4,mp-574086,P2_1/c,monoclinic,3.9864
BiSeCl,mp-610491,Pnma,orthorhombic,1.867
H5NO,mp-625927,P2_12_12_1,orthorhombic,4.8195
Te(HO)6,mp-625950,I4/m,tetragonal,1.9338
HF,mp-632296,Cmc2_1,orthorhombic,7.3482
BH3,mp-634117,P2_1/c,monoclinic,5.4382
AlBiSeCl4,mp-637206,I-4,tetragonal,2.6248
HOF,mp-642810,P2_12_12_1,orthorhombic,3.1986
CuH6(NO)4,mp-643052,P-1,triclinic,0.6935
SiH6(NF2)2,mp-643277,P2_1/c,monoclinic,6.8679
Ru(CO)4,mp-655353,Ibam,orthorhombic,2.1682
Sn7(SBr5)2,mp-674324,P1,triclinic,1.8934
CuSnH12(NO3)2,mp-696152,P-1,triclinic,1.766
B3H7CO,mp-696308,P1,triclinic,4.0735
BH3OF4,mp-696379,P-1,triclinic,8.0969
ZnH8C2(SN3)2,mp-696420,P2_1/c,monoclinic,4.3049
B5H9,mp-696597,I4mm,tetragonal,5.505
BH4O2F3,mp-696656,P2_1/c,monoclinic,7.5277
H4NClO2,mp-696666,P-42_1m,tetragonal,2.9355
TiH12C2(NF)6,mp-696940,Cm,monoclinic,2.4509
SiH12C2(NF)6,mp-697253,C2/m,monoclinic,5.0702
SnH8(CI)4,mp-698357,P-42_1c,tetragonal,3.009
H7S(NO2)2,mp-703297,P-1,triclinic,5.6127
PH6(NO)2,mp-706622,P2_1/c,monoclinic,5.0382
Mg(CO2)2,mp-754005,P2_1/c,monoclinic,3.5439
BCl(OF2)2,mp-754459,Cc,monoclinic,2.1505
F2,mp-760482,Cmce,orthorhombic,2.6376
SeI2,mp-861871,P4_2/mnm,tetragonal,0.8425
SeBr2,mp-861891,P4_2/mnm,tetragonal,0.8811
BH6CN3F4,mp-862539,R3m,rhombohedral,5.668
Sb2H8Pt(OF3)4,mp-862678,P-1,triclinic,1.7644
TeI2,mp-862773,P4_2/mnm,tetragonal,0.0672
PrI3,mp-862800,P6_3/mmc,hexagonal,1.5771
NdI3,mp-864617,P6_3/mmc,hexagonal,1.5844
HoI3,mp-864657,P6_3/mmc,hexagonal,1.7375
HoCl3,mp-864662,P6_3/mmc,hexagonal,3.2534
BrCl,mp-864928,P6_3mc,hexagonal,0.303
DyBr3,mp-864982,P6_3/mmc,hexagonal,2.5371
DyI3,mp-865005,P6_3/mmc,hexagonal,1.716
LuCl3,mp-865324,P6_3/mmc,hexagonal,3.3927
TmI3,mp-865353,P6_3/mmc,hexagonal,1.8021
TiH8(NF3)2,mp-865466,P-3m1,hexagonal,4.6803
LuI3,mp-865521,P6_3/mmc,hexagonal,1.8602
ErI3,mp-866003,P6_3/mmc,hexagonal,1.7726
LuBr3,mp-866214,P6_3/mmc,hexagonal,2.6949
SiH8,mp-972825,I-4m2,tetragonal,7.2961
HoBr3,mp-977375,P6_3/mmc,hexagonal,2.5614
H3F2,mp-983357,P1,triclinic,8.8356
H2C,mp-985782,Pnma,orthorhombic,6.5591
CO2,mp-995198,P2_1/c,monoclinic,4.3398
InGeCl3,mp-998233,Cm,monoclinic,1.3724
Rb2CoO3,mp-761568,Cmc2_1,orthorhombic,0.0639
Na4TiO4,mp-761683,Cmcm,orthorhombic,3.4884
Li2CrCo3O8,mp-761748,R-3m,rhombohedral,0.02
Hf3SnO8,mp-761842,P2,monoclinic,3.7212
BaCO3,mp-762225,P2_1,monoclinic,4.4821
BiOF,mp-762304,P2_1/c,monoclinic,3.279
NbOF3,mp-762371,P4_1,tetragonal,3.733
Li2MnF4,mp-763098,I-4,tetragonal,0.0082
LiCoSiO4,mp-763240,C222_1,orthorhombic,0.0035
LiV(PO3)3,mp-763497,P1,triclinic,0.4585
NaVO3,mp-763901,Ibam,orthorhombic,3.0235
V6O11F,mp-763992,Amm2,orthorhombic,0.0046
Li8TiS6,mp-754266,R-3,rhombohedral,1.0175
SrO,mp-754282,P6_3/mmc,hexagonal,3.0781
HoHO2,mp-754283,Pnma,orthorhombic,4.8322
HoBiO3,mp-754300,R-3,rhombohedral,2.423
TmBiO3,mp-754323,R3c,rhombohedral,3.1778
NaAgO2,mp-754326,C2/m,monoclinic,0.7296
TiO,mp-754333,P6_3/mmc,hexagonal,0.0117
NaTmO2,mp-754334,I4_1/amd,tetragonal,4.6241
Na3CuO2,mp-754352,Ibam,orthorhombic,1.4224
Zr3N4,mp-754353,R-3m,rhombohedral,1.1242
Ba2HfO4,mp-754363,I4/mmm,tetragonal,3.4762
K4TiO4,mp-754377,Cmcm,orthorhombic,3.4856
ScTlO2,mp-754384,P6_3/mmc,hexagonal,1.1625
Al2O3,mp-754401,Cmc2_1,orthorhombic,4.3964
ZrO2,mp-754403,I4_1/amd,tetragonal,3.9146
HoBO3,mp-754409,R-3c,rhombohedral,5.5108
CaTm2O4,mp-754429,Cmcm,orthorhombic,3.4042
Hf3N4,mp-754434,R-3m,rhombohedral,1.1605
LuAlO3,mp-754435,R-3c,rhombohedral,5.4364
Cd(AgO2)2,mp-754454,I4_1/amd,tetragonal,0.0138
Sc2O3,mp-754455,R-3,rhombohedral,4.0827
HfZrO4,mp-754478,Cmmm,orthorhombic,3.6359
SrCa2I6,mp-754517,P-31m,hexagonal,3.6674
LiNb(TeO4)3,mp-754519,P1,triclinic,1.7076
Al2O3,mp-754531,P2_1/c,monoclinic,4.7371
TmTlO2,mp-754541,R-3m,rhombohedral,1.5838
HoTlO2,mp-754555,R-3m,rhombohedral,1.5745
TmGaO3,mp-754578,Pnma,orthorhombic,3.929
Li8BiO6,mp-754586,R-3,rhombohedral,3.5954
K2Be2O3,mp-754587,P2_1/c,monoclinic,3.6848
BaBePO4F,mp-754604,Cc,monoclinic,6.5358
LuNbO4,mp-754614,P2/c,monoclinic,3.2443
Sm2Ge2O7,mp-754621,C2/m,monoclinic,3.8783
Al2O3,mp-754624,R-3,rhombohedral,6.1874
Na2Be2O3,mp-754663,P2_1/c,monoclinic,4.6486
Hf3N2O3,mp-754668,Cm,monoclinic,3.3562
CaTiO3,mp-754701,R-3,rhombohedral,3.598
Sr2CaI6,mp-754710,P-31m,hexagonal,3.6198
CaBe3O4,mp-754739,P-62c,hexagonal,4.0625
ZrO2,mp-754741,Pnma,orthorhombic,3.5905
NbNO,mp-754752,C2/m,monoclinic,1.5335
Tb2Pt2O7,mp-754768,Fd-3m,cubic,1.4286
TiO2,mp-754769,Pnma,orthorhombic,2.1412
NaLaO2,mp-754777,R-3m,rhombohedral,4.2312
Ga3NO3,mp-754781,R-3m,rhombohedral,1.907
SmTlO3,mp-754787,Pnma,orthorhombic,0.9012
Ti3N2O3,mp-754790,Cm,monoclinic,1.5621
NaTmO2,mp-754796,C2/c,monoclinic,4.5373
Bi2SeO6,mp-754798,Cmce,orthorhombic,2.3005
Al2O3,mp-754812,C2/m,monoclinic,4.8512
ErTlO2,mp-754823,R-3m,rhombohedral,1.5078
SrO,mp-754824,P6_3mc,hexagonal,2.7499
NaTmO2,mp-754825,R-3m,rhombohedral,4.5345
Tm2TeO2,mp-754827,P-3m1,hexagonal,0.1284
Hf2N2O,mp-754833,P1,triclinic,1.1262
Er2TeO2,mp-754834,P-3m1,hexagonal,0.0756
Hf2N2O,mp-754837,P1,triclinic,2.448
SnBiO4,mp-754839,I-4m2,tetragonal,0.0064
TaAsO4,mp-754840,Pc,monoclinic,2.7423
Na2Ti2O5,mp-754843,C2/m,monoclinic,3.0383
Na2IrO3,mp-754844,C2/m,monoclinic,1.8042
BaSrI4,mp-754852,R-3m,rhombohedral,3.3175
KHoO2,mp-754883,R-3m,rhombohedral,4.06
SrCaI4,mp-754885,Pbcn,orthorhombic,3.5461
Rb3ClO,mp-754892,Pm-3m,cubic,0.3151
Y(BO2)3,mp-754903,C2/c,monoclinic,5.5991
SmTlO2,mp-754933,R-3m,rhombohedral,1.8497
DyAlO3,mp-754936,R-3c,rhombohedral,5.3055
ErBiO3,mp-754943,R3c,rhombohedral,3.1807
LuSiRu,mp-754955,Pnma,orthorhombic,0.0039
HfZrO4,mp-754964,I4_1/a,tetragonal,4.2844
Y3AlO6,mp-754979,Cmc2_1,orthorhombic,4.6708
Er(BiO2)3,mp-754989,R-3,rhombohedral,2.1263
LuTlO2,mp-754992,R-3m,rhombohedral,1.494
Ce2SeO2,mp-754998,I4/mmm,tetragonal,0.0003
Er2TeO6,mp-755001,P4_2/mnm,tetragonal,2.6553
Li5TaO5,mp-755013,C2/m,monoclinic,3.7835
RbTaO3,mp-755018,R3m,rhombohedral,2.3913
SrCa2I6,mp-755020,C2/c,monoclinic,3.64
Al2Si2O7,mp-755043,C2/c,monoclinic,5.4436
Ga4SiO8,mp-755053,C2/m,monoclinic,2.6485
Ti3N2O3,mp-755054,Cmcm,orthorhombic,1.4833
CaPbI4,mp-755056,Cmmm,orthorhombic,2.663
Rb2PrO3,mp-755057,Cmc2_1,orthorhombic,3.6353
Al2O3,mp-755066,P2_1/c,monoclinic,4.6159
SnO2,mp-755071,I4_1/amd,tetragonal,1.4724
Na2O,mp-755072,Pnnm,orthorhombic,1.2119
BaYCl5,mp-755083,C2/c,monoclinic,4.1203
Na6MgO4,mp-755084,P4_2/nmc,tetragonal,2.2765
ZrO2,mp-755089,Pnma,orthorhombic,4.1394
Dy2TiO5,mp-755107,C2/c,monoclinic,2.946
TiBi2O5,mp-755121,Cmcm,orthorhombic,1.6059
Zr3N2O3,mp-755132,Cm,monoclinic,2.8458
NaHoO2,mp-755141,I4_1/amd,tetragonal,4.4787
YScO3,mp-755165,Pnma,orthorhombic,4.4329
Al2O3,mp-755175,P-31c,hexagonal,6.011
TmBiO3,mp-755216,R-3,rhombohedral,2.5461
ScTlO2,mp-755219,R-3m,rhombohedral,1.1183
Li5CuSO2,mp-755243,P4/mmm,tetragonal,2.4891
DyHO2,mp-755252,P6_3/mmc,hexagonal,4.2153
Li3NbS4,mp-755309,P-43m,cubic,2.685
NaLuO2,mp-755311,R-3m,rhombohedral,4.5459
Sc2O3,mp-755313,R-3c,rhombohedral,4.1868
Hf2N2O,mp-755314,C2/m,monoclinic,2.0569
ScHO2,mp-755318,P6_3/mmc,hexagonal,3.7083
DyClO,mp-755323,P4/nmm,tetragonal,5.143
HgO2,mp-755333,C2/m,monoclinic,0.3887
Tb2SeO2,mp-755340,P-3m1,hexagonal,2.3474
LuGaO3,mp-755342,P6_3/mmc,hexagonal,2.7544
NdAsO4,mp-755357,I4_1/amd,tetragonal,3.9466
LuAlO3,mp-755358,P6_3/mmc,hexagonal,4.0344
BaNa2O2,mp-755391,Cmc2_1,orthorhombic,2.8289
Na2O,mp-755413,R-3m,rhombohedral,2.2075
HoGaO3,mp-755416,Pnma,orthorhombic,3.8977
Bi2TeO2,mp-755419,P1,triclinic,0.2373
Rb2O,mp-755459,P2_1/c,monoclinic,1.5542
KRbO,mp-755480,P4/nmm,tetragonal,1.7942
Al2O3,mp-755483,R3m,rhombohedral,4.4994
HoHO2,mp-755543,Pmn2_1,orthorhombic,4.9477
YTlO2,mp-755544,R-3m,rhombohedral,1.5973
LiYS2,mp-755552,P4/mmm,tetragonal,0.3233
Y2SeO2,mp-755609,I4/mmm,tetragonal,2.3286
HoHO2,mp-755716,P6_3/mmc,hexagonal,4.2573
Rb2O,mp-755738,Pnma,orthorhombic,2.2127
Y2TeO2,mp-755756,I4/mmm,tetragonal,1.2511
TbNbO4,mp-755781,I4_1/amd,tetragonal,3.9439
NaDyO2,mp-755883,I4_1/amd,tetragonal,4.4174
Lu(HO)3,mp-755902,P6_3/m,hexagonal,3.8318
BaMgO2,mp-756018,P3_121,hexagonal,3.3922
NaSmO2,mp-756034,R-3m,rhombohedral,4.2764
LiTi4O8,mp-756035,Pm,monoclinic,0.0047
Na3AsO4,mp-756044,Pmn2_1,orthorhombic,3.4354
TbTaO4,mp-756076,P2_1/c,monoclinic,3.7391
BaNa4O3,mp-756084,Cc,monoclinic,1.8227
BaNa4O3,mp-756090,Cc,monoclinic,1.8046
TbSmO3,mp-756118,Pnma,orthorhombic,4.6606
Sr2CaI6,mp-756131,P4_2/mnm,tetragonal,3.6338
ZrSeO,mp-756134,P4/nmm,tetragonal,0.7964
Mg(AgO2)2,mp-756146,I4_1/amd,tetragonal,0.7383
Sm2Pt2O7,mp-756148,Fd-3m,cubic,1.2372
Rb2ZrO3,mp-756156,Cmc2_1,orthorhombic,3.9199
Er3TaO7,mp-756160,Cmcm,orthorhombic,3.4327
RbHO,mp-756182,Pnma,orthorhombic,3.4221
Tm4(B2O5)3,mp-756194,R3,rhombohedral,4.9565
Er3TaO7,mp-756277,P-1,triclinic,3.5508
TmAlO3,mp-756281,Pnma,orthorhombic,6.2469
TbGaO3,mp-756290,Pnma,orthorhombic,3.88
Al2HgO4,mp-756317,Fd-3m,cubic,1.5071
K2Sr2O3,mp-756334,P2_1/c,monoclinic,2.0775
Tm2TeO6,mp-756339,P4_2/mnm,tetragonal,2.641
Li4ZrO4,mp-756344,Cmcm,orthorhombic,4.7321
ZrSeO,mp-756361,P2_13,cubic,2.0131
Lu2TeO6,mp-756389,P4_2/mnm,tetragonal,2.5959
TaAsO4,mp-756401,Cmc2_1,orthorhombic,2.8798
YHO2,mp-756402,Pnma,orthorhombic,4.9987
Er2Pt2O7,mp-756440,Fd-3m,cubic,1.5912
ErNbO4,mp-756457,P2/c,monoclinic,3.2633
ErAlO3,mp-756458,Pnma,orthorhombic,6.1225
LiTeHO4,mp-756477,Pm,monoclinic,1.5444
Sr2CaI6,mp-756500,C2/c,monoclinic,3.6509
SrLu2O4,mp-756580,Cmcm,orthorhombic,3.4814
TiO2,mp-756587,P6_3mc,hexagonal,2.3467
Sm3NbO7,mp-756591,C222_1,orthorhombic,2.6584
ErTa3O9,mp-756598,P2_1/m,monoclinic,3.4765
DyAlO3,mp-756630,Pnma,orthorhombic,5.8606
LiNdO2,mp-756648,P2_1/c,monoclinic,3.8653
BaCaI4,mp-756666,I4_1/a,tetragonal,4.018
AlGaO3,mp-756686,Pnma,orthorhombic,2.8114
Mg2TiO4,mp-757031,P4_122,tetragonal,3.3696
BaCaI4,mp-757070,R-3m,rhombohedral,2.9992
BaCa2I6,mp-757074,P-31m,hexagonal,3.7622
LiCoS2,mp-757100,R3m,rhombohedral,0.0363
Rb3ErO3,mp-757116,C2/m,monoclinic,2.1902
Bi3O4F,mp-757162,P2/c,monoclinic,0.7573
BaYF5,mp-757176,C2/c,monoclinic,6.5831
Sc2Ge2O7,mp-757450,Fd-3m,cubic,3.7425
Li2TiCuO4,mp-757583,I-4m2,tetragonal,0.0088
LiSiBi3O7,mp-757777,P6_3,hexagonal,3.0567
Li2Ag3F6,mp-757872,C2/m,monoclinic,1.5786
MgAl10O16,mp-757911,R3m,rhombohedral,4.8992
SbOF3,mp-758096,P-42_1m,tetragonal,1.8102
LiNb(TeO4)3,mp-758389,P2,monoclinic,1.7121
AgHg,mp-758433,Pm-3m,cubic,0.0062
YZr4O9,mp-758784,P1,triclinic,0.0051
YbAlO3,mp-759116,P6_3/mmc,hexagonal,0.0592
Li2AgF3,mp-759198,Cmcm,orthorhombic,1.6497
LiSb(TeO4)3,mp-759207,P1,triclinic,1.3448
Li5CuF8,mp-759224,Cmmm,orthorhombic,6.7166
Na5SbO5,mp-759876,C2,monoclinic,1.8298
Ho2Ge2O7,mp-753693,C2/m,monoclinic,3.9468
SrLiNb2O6F,mp-753719,I-4m2,tetragonal,1.8508
Ta3O7F,mp-753747,Cmmm,orthorhombic,2.3771
LiAgF2,mp-753751,I4_1/amd,tetragonal,0.5574
KTmO2,mp-753774,R-3m,rhombohedral,4.2045
BaCaI4,mp-753775,Pmm2,orthorhombic,3.1998
Li5InO4,mp-753783,Pmmn,orthorhombic,2.7846
Sc2Ti2O7,mp-753802,C2/m,monoclinic,3.5908
BSbO3,mp-753806,P-1,triclinic,2.9199
BaCaI4,mp-753809,P2/c,monoclinic,3.7204
CaY2O4,mp-753815,Fd-3m,cubic,4.255
LiCuS,mp-753826,Pnma,orthorhombic,1.2024
Bi4O3F7,mp-753832,Pm,monoclinic,3.6703
Mg(GaO2)2,mp-753846,R3m,rhombohedral,2.5711
Ni2H,mp-753890,P3m1,hexagonal,0.008
ZrTiO4,mp-753891,P1,triclinic,2.6593
Tm2SeO2,mp-753920,P-3m1,hexagonal,2.298
LuHO2,mp-753947,Pmn2_1,orthorhombic,5.1041
PrTiO3,mp-753948,R-3c,rhombohedral,0.0026
BaY2F8,mp-753990,P4/mmm,tetragonal,6.3486
TmHO2,mp-754004,Pnma,orthorhombic,4.916
ScBiO3,mp-754009,R3c,rhombohedral,3.2638
BaYBr5,mp-754021,C2/c,monoclinic,3.1249
NaSmO2,mp-754027,I4_1/amd,tetragonal,3.989
NaLuO2,mp-754043,I4_1/amd,tetragonal,4.6982
Ho2TiO5,mp-754044,C2/c,monoclinic,2.9515
Rb3SbO3,mp-754047,C2/m,monoclinic,2.41
Ce3Th2O9,mp-754058,Cm,monoclinic,0.0003
MnP2,mp-754064,P2/m,monoclinic,0.0093
Pb2O3,mp-754071,Pmn2_1,orthorhombic,0.1154
Lu2TiO5,mp-754073,Cmcm,orthorhombic,3.0976
Y(BiO2)3,mp-754107,R-3,rhombohedral,2.103
PrAsO4,mp-754109,I4_1/a,tetragonal,4.0862
SmAgO2,mp-754110,P6_3/mmc,hexagonal,2.7559
Sr(AsO3)2,mp-754118,P-31m,hexagonal,3.4459
Ba3Hf2O7,mp-754128,I4/mmm,tetragonal,3.6854
HfZrO4,mp-754134,P2_1/c,monoclinic,3.7115
Rb3YO3,mp-754146,C2/m,monoclinic,2.2484
YBiO3,mp-754152,R-3,rhombohedral,2.4337
AlInO3,mp-754157,P6_3/mmc,hexagonal,2.4641
KNdO2,mp-754158,R-3m,rhombohedral,3.7017
ScGaO3,mp-754165,P6_3/mmc,hexagonal,2.8669
Tm2TiO5,mp-754192,Cmcm,orthorhombic,3.087
Ba2SrI6,mp-754196,P-31m,hexagonal,3.5717
BaSrI4,mp-754199,C2/c,monoclinic,2.7572
BaSr2I6,mp-754212,C2/m,monoclinic,3.8719
Tm(CuO2)2,mp-754220,C2/c,monoclinic,0.0035
YLuO3,mp-754226,P6_3/mmc,hexagonal,3.575
LiTmO2,mp-754237,I4_1/amd,tetragonal,4.7627
ScGaO3,mp-754239,Pnma,orthorhombic,4.331
CaSm2O4,mp-754240,Fd-3m,cubic,3.8784
NaLuO2,mp-754250,C2/c,monoclinic,4.5728
LiAgF2,mp-752882,Pna2_1,orthorhombic,1.5315
Na3BiO4,mp-752910,Cmmm,orthorhombic,0.3727
Li8HfO6,mp-752922,R-3,rhombohedral,5.5293
LiAg2F4,mp-752948,I-4,tetragonal,2.2699
U3O5,mp-752998,P3m1,hexagonal,0.0019
Li2AgF3,mp-753009,Pnma,orthorhombic,1.6142
TiSnO4,mp-753048,Cm,monoclinic,1.8436
TbBi5O9,mp-753055,P1,triclinic,1.8485
HoBO3,mp-753056,Ama2,orthorhombic,4.714
Li6CuF8,mp-753139,Fm-3m,cubic,5.246
BiOF,mp-753160,Pnma,orthorhombic,3.4149
YbTiO3,mp-753164,R-3,rhombohedral,3.5575
SrH2(SeO3)2,mp-753175,P-1,triclinic,4.2432
AgCO3,mp-753176,R-3c,rhombohedral,0.0112
Yb4Sb2O,mp-753192,I4/mmm,tetragonal,0.6804
Li2WS4,mp-753195,I-42m,tetragonal,1.7379
HfTiO4,mp-753197,P1,triclinic,2.8725
SmAgO2,mp-753226,R-3m,rhombohedral,2.7283
LaAgO2,mp-753260,R-3m,rhombohedral,3.0655
LiAgF2,mp-753277,Pmn2_1,orthorhombic,1.375
Mg9CuO10,mp-753285,C2/m,monoclinic,3.3556
CaCdO2,mp-753287,P4/mmm,tetragonal,0.6533
Bi2OF4,mp-753309,C2/c,monoclinic,4.1845
Mg3ZnO4,mp-753315,Cmmm,orthorhombic,3.6363
Li2AgF5,mp-753316,P1,triclinic,1.0908
DyBO3,mp-753318,Ama2,orthorhombic,4.7067
Ba2CaI6,mp-753345,P-31m,hexagonal,3.4158
BiOF,mp-753360,Pnma,orthorhombic,3.1858
LiCuS,mp-753371,I4/mmm,tetragonal,2.0042
TaGaO4,mp-753378,Pnc2,orthorhombic,3.4405
LiAg2F4,mp-753385,Fd-3m,cubic,2.2949
Sc2TiO5,mp-753401,Cmc2_1,orthorhombic,3.1495
Lu2Pt2O7,mp-753414,Fd-3m,cubic,1.7394
NaBeO2,mp-753443,C2/c,monoclinic,3.1473
Ce4ThO9,mp-753456,I-4,tetragonal,0.0017
Nb3O7F,mp-753459,Cmmm,orthorhombic,1.5874
NbAlO4,mp-753472,P-1,triclinic,2.7258
BiOF,mp-753478,P2_1/c,monoclinic,3.2035
Sb3O4F,mp-753510,P2/c,monoclinic,2.6195
SbOF,mp-753539,Pna2_1,orthorhombic,3.6009
LaUO4,mp-753581,P4/mmm,tetragonal,0.0027
BaCaI4,mp-753610,Cmc2_1,orthorhombic,3.5953
BaSrO2,mp-753619,P4/mmm,tetragonal,2.2685
SbOF,mp-753656,Pnma,orthorhombic,3.2612
K2Mg2O3,mp-753662,P2_1/c,monoclinic,3.3106
BaYBr5,mp-753663,C2/c,monoclinic,3.3838
CaPbI4,mp-753670,C2/m,monoclinic,2.725
PNO,mp-753671,I2_12_12_1,orthorhombic,5.2983
Be2P2O7,mp-752393,C2/c,monoclinic,6.6702
Ca2HfO4,mp-752413,Pbam,orthorhombic,3.9014
Na2TiO3,mp-752423,C2/c,monoclinic,3.2351
RbNO3,mp-752446,R32,rhombohedral,3.0183
Zn(CuO2)2,mp-752451,I4_1/a,tetragonal,0.0271
NbNO,mp-752463,I4_1md,tetragonal,1.0261
NbO2F,mp-752467,Cc,monoclinic,2.3598
K3NaFeCl6,mp-752477,R-3m,rhombohedral,0.0066
LiBiF5,mp-752483,I-4,tetragonal,0.1556
TiOF,mp-752496,P2_1/c,monoclinic,0.0074
Sr2HfO4,mp-752537,Pbam,orthorhombic,3.5319
LiAgF2,mp-752549,C2/m,monoclinic,1.8616
SbO2F,mp-752561,Cc,monoclinic,1.4198
RbNO2,mp-752580,P3_121,hexagonal,2.354
BaYF5,mp-752675,C2/c,monoclinic,7.4783
TiBi2O5,mp-752676,Cmc2_1,orthorhombic,2.7163
Ba2YBr7,mp-752677,C2/c,monoclinic,3.1555
BaTm2O4,mp-752684,Cmcm,orthorhombic,2.9217
Sm3TaO7,mp-752686,C222_1,orthorhombic,3.4924
Ho2TiO5,mp-752724,Cmcm,orthorhombic,3.0786
LiAgF2,mp-752725,Pnma,orthorhombic,1.2261
LiAgF2,mp-752767,C2,monoclinic,1.8661
AgI,mp-684580,I-4m2,tetragonal,1.2588
HCl,mp-684609,Imm2,orthorhombic,5.2848
Bi2O3,mp-684654,P1,triclinic,1.1653
CaC2,mp-684668,Pnnm,orthorhombic,2.4516
H2O,mp-684704,Cc,monoclinic,5.5025
K5As4,mp-684799,P-1,triclinic,0.0079
K2O,mp-684904,C2/c,monoclinic,0.0755
TePb,mp-685022,Pnma,orthorhombic,0.0922
HfO2,mp-685097,Pca2_1,orthorhombic,4.4369
Li5SiP3,mp-685991,Cc,monoclinic,1.2863
TiVO4,mp-690490,Cmmm,orthorhombic,0.0055
NaH3CN4O,mp-690653,Pmma,orthorhombic,4.6823
Na2BH4ClO4,mp-690684,P4/nmm,tetragonal,4.9562
H2SO4,mp-690733,C2/c,monoclinic,6.5448
TiH,mp-690760,P4_2/mmc,tetragonal,0.0047
K3ReH6,mp-690789,Fm-3m,cubic,2.7251
ScF3,mp-695817,C222,orthorhombic,4.7052
NaH3SO5,mp-696347,Cc,monoclinic,5.801
Al5HO8,mp-696529,P6_3mc,hexagonal,4.7567
HPbClO,mp-696701,Pnma,orthorhombic,3.4328
RbBe2F5,mp-696736,P1,triclinic,7.6093
B4C,mp-696746,R-3m,rhombohedral,1.6596
KP(HO2)2,mp-696752,I-42d,tetragonal,5.9982
RbHS,mp-696804,P2_1/m,monoclinic,3.2427
H2S,mp-696805,Pbcm,orthorhombic,4.518
CaZnSiH2O5,mp-696853,Cc,monoclinic,3.8997
K3CaP2HO8,mp-696878,C2/m,monoclinic,5.395